------------------------------------------------------------
          Invoking FHI-aims ...

          When using FHI-aims, please cite the following reference:

            Volker Blum, Ralf Gehrke, Felix Hanke, Paula Havu,
            Ville Havu, Xinguo Ren, Karsten Reuter, and Matthias Scheffler,
            'Ab Initio Molecular Simulations with Numeric Atom-Centered Orbitals',
            Computer Physics Communications 180, 2175-2196 (2009)

          In addition, many other developments in FHI-aims are likely important for
          your particular application. If so, please cite them. A partial list of references
          is written at the end of this file. Thank you for giving credit to the authors
          of these developments.

          For general information about FHI-aims please find us at

            https://fhi-aims.org

          Online tutorials can be found at

            https://fhi-aims-club.gitlab.io/tutorials/tutorials-overview/

          For any questions about FHI-aims, please visit our slack channel at

            https://fhi-aims.slack.com

          and our main development and support site at

            https://aims-git.rz-berlin.mpg.de .

          The latter site, in particular, has a wiki to collect information, as well
          as an issue tracker to log discussions, suggest improvements, and report issues
          or bugs. https://aims-git.rz-berlin.mpg.de is also the main development site
          of the project and all new and updated code versions can be obtained there.
          Please send an email to aims-coordinators@fhi-berlin.mpg.de and we will add
          you to these sites. They are for you and everyone is welcome there.

------------------------------------------------------------



  Date     :  20240501, Time     :  111941.776
  Time zero on CPU 1             :   0.213900000000000E-01  s.
  Internal wall clock time zero  :           483794381.776  s.

  FHI-aims created a unique identifier for this run for later identification
  aims_uuid : BDD6C2A1-BE1E-4976-A738-C114060B30BC

  Build configuration of the current instance of FHI-aims
  -------------------------------------------------------
  FHI-aims version      : 240206
  Commit number         : 2d3e5a79f
  CMake host system     : Linux-6.7.4-zen1-1-zen
  CMake version         : 3.28.3
  Fortran compiler      : /usr/bin/mpifort (GNU) version 13.2.1
  Fortran compiler flags: -fallow-argument-mismatch -march=native -ffree-line-length-none -fallow-argument-mismatch -march=native -ffree-line-length-none
  C compiler            : /usr/bin/gcc (GNU) version 13.2.1
  C compiler flags      :  -march=native
  C++ compiler          : /usr/bin/g++ (GNU) version 13.2.1
  C++ compiler flags    :  -march=native
  HIP compiler          :
  HIP compiler flags    :
  HIP GPU arch          :
  Using MPI
  Using ScaLAPACK
  Using LibXC
  Using i-PI
  Using RLSY
  Linking against: /usr/lib/libscalapack.so
                   /usr/lib/libopenblas.so

  Using        4 parallel tasks.
  Task        0 on host arch reporting.
  Task        1 on host arch reporting.
  Task        2 on host arch reporting.
  Task        3 on host arch reporting.

  Memory overcommitment is allowed on your operating system.

  Obtaining array dimensions for all initial allocations:
  
  -----------------------------------------------------------------------
  Parsing control.in (first pass over file, find array dimensions only).
  The contents of control.in will be repeated verbatim below
  unless switched off by setting 'verbatim_writeout .false.' .
  in the first line of control.in .
  -----------------------------------------------------------------------
  
  xc                           pbe
  relax_geometry               bfgs 5e-3
  ################################################################################
  #
  #  FHI-aims code project
  #  VB, Fritz-Haber Institut, 2009
  #
  #  Suggested "light" defaults for O atom (to be pasted into control.in file)
  #  Be sure to double-check any results obtained with these settings for post-processing,
  #  e.g., with the "tight" defaults and larger basis sets.
  #
  ################################################################################
    species        O
  #     global species definitions
      nucleus             8
      mass                15.9994
  #
      l_hartree           4
  #
      cut_pot             3.5  1.5  1.0
      basis_dep_cutoff    1e-4
  #
      radial_base         36 5.0
      radial_multiplier   1
       angular_grids specified
        division   0.2659   50
        division   0.4451  110
        division   0.6052  194
        division   0.7543  302
  #      division   0.8014  434
  #      division   0.8507  590
  #      division   0.8762  770
  #      division   0.9023  974
  #      division   1.2339 1202
  #      outer_grid 974
        outer_grid 302
  ################################################################################
  #
  #  Definition of "minimal" basis
  #
  ################################################################################
  #     valence basis states
      valence      2  s   2.
      valence      2  p   4.
  #     ion occupancy
      ion_occ      2  s   1.
      ion_occ      2  p   3.
  ################################################################################
  #
  #  Suggested additional basis functions. For production calculations,
  #  uncomment them one after another (the most important basis functions are
  #  listed first).
  #
  #  Constructed for dimers: 1.0 A, 1.208 A, 1.5 A, 2.0 A, 3.0 A
  #
  ################################################################################
  #  "First tier" - improvements: -699.05 meV to -159.38 meV
       hydro 2 p 1.8
       hydro 3 d 7.6
       hydro 3 s 6.4
  #  "Second tier" - improvements: -49.91 meV to -5.39 meV
  #     hydro 4 f 11.6
  #     hydro 3 p 6.2
  #     hydro 3 d 5.6
  #     hydro 5 g 17.6
  #     hydro 1 s 0.75
  #  "Third tier" - improvements: -2.83 meV to -0.50 meV
  #     ionic 2 p auto
  #     hydro 4 f 10.8
  #     hydro 4 d 4.7
  #     hydro 2 s 6.8
  #  "Fourth tier" - improvements: -0.40 meV to -0.12 meV
  #     hydro 3 p 5
  #     hydro 3 s 3.3
  #     hydro 5 g 15.6
  #     hydro 4 f 17.6
  #     hydro 4 d 14
  # Further basis functions - -0.08 meV and below
  #     hydro 3 s 2.1
  #     hydro 4 d 11.6
  #     hydro 3 p 16
  #     hydro 2 s 17.2
  ################################################################################
  #
  #  FHI-aims code project
  #  VB, Fritz-Haber Institut, 2009
  #
  #  Suggested "light" defaults for H atom (to be pasted into control.in file)
  #  Be sure to double-check any results obtained with these settings for post-processing,
  #  e.g., with the "tight" defaults and larger basis sets.
  #
  ################################################################################
    species        H
  #     global species definitions
      nucleus             1
      mass                1.00794
  #
      l_hartree           4
  #
      cut_pot             3.5  1.5  1.0
      basis_dep_cutoff    1e-4
  #
      radial_base         24 5.0
      radial_multiplier   1
      angular_grids       specified
        division   0.2421   50
        division   0.3822  110
        division   0.4799  194
        division   0.5341  302
  #      division   0.5626  434
  #      division   0.5922  590
  #      division   0.6542  770
  #      division   0.6868 1202
  #      outer_grid  770
        outer_grid  302
  ################################################################################
  #
  #  Definition of "minimal" basis
  #
  ################################################################################
  #     valence basis states
      valence      1  s   1.
  #     ion occupancy
      ion_occ      1  s   0.5
  ################################################################################
  #
  #  Suggested additional basis functions. For production calculations,
  #  uncomment them one after another (the most important basis functions are
  #  listed first).
  #
  #  Basis constructed for dimers: 0.5 A, 0.7 A, 1.0 A, 1.5 A, 2.5 A
  #
  ################################################################################
  #  "First tier" - improvements: -1014.90 meV to -62.69 meV
       hydro 2 s 2.1
       hydro 2 p 3.5
  #  "Second tier" - improvements: -12.89 meV to -1.83 meV
  #     hydro 1 s 0.85
  #     hydro 2 p 3.7
  #     hydro 2 s 1.2
  #     hydro 3 d 7
  #  "Third tier" - improvements: -0.25 meV to -0.12 meV
  #     hydro 4 f 11.2
  #     hydro 3 p 4.8
  #     hydro 4 d 9
  #     hydro 3 s 3.2
  
  -----------------------------------------------------------------------
  Completed first pass over input file control.in .
  -----------------------------------------------------------------------
  
  
  -----------------------------------------------------------------------
  Parsing geometry.in (first pass over file, find array dimensions only).
  The contents of geometry.in will be repeated verbatim below
  unless switched off by setting 'verbatim_writeout .false.' .
  in the first line of geometry.in .
  -----------------------------------------------------------------------
  
  atom    0.00000000    0.00000000    0.00000000    O
  atom    0.70700000   -0.70700000    0.00000000    H
  atom   -0.70700000   -0.70700000    0.00000000    H
  
  -----------------------------------------------------------------------
  Completed first pass over input file geometry.in .
  -----------------------------------------------------------------------
  

  Basic array size parameters:
  | Number of species                 :        2
  | Number of atoms                   :        3
  | Max. basis fn. angular momentum   :        2
  | Max. atomic/ionic basis occupied n:        2
  | Max. number of basis fn. types    :        2
  | Max. radial fns per species/type  :        3
  | Max. logarithmic grid size        :     1301
  | Max. radial integration grid size :       36
  | Max. angular integration grid size:      302
  | Max. angular grid division number :        8
  | Radial grid for Hartree potential :     1301
  | Number of spin channels           :        1

------------------------------------------------------------
          Reading file control.in.
------------------------------------------------------------
  XC: Using PBE gradient-corrected functionals.
  Geometry relaxation: Modified BFGS - TRM (trust radius method) for lattice optimization.
  Convergence accuracy for geometry relaxation: Maximum force <   0.500000E-02 eV/A.

  Reading configuration options for species O                   .
  | Found nuclear charge :   8.0000
  | Found atomic mass :    15.999400000000000      amu
  | Found l_max for Hartree potential  :   4
  | Found cutoff potl. onset [A], width [A], scale factor :    3.50000    1.50000    1.00000
  | Threshold for basis-dependent cutoff potential is   0.100000E-03
  | Found data for basic radial integration grid :    36 points, outermost radius =    5.000 A
  | Found multiplier for basic radial grid :   1
  | Found angular grid specification: user-specified.
  | Specified grid contains     5 separate shells.
  | Check grid settings after all constraints further below.
  | Found free-atom valence shell :  2 s   2.000
  | Found free-atom valence shell :  2 p   4.000
  | No ionic wave fns used. Skipping ion_occ.
  | No ionic wave fns used. Skipping ion_occ.
  | Found hydrogenic basis function :  2 p   1.800
  | Found hydrogenic basis function :  3 d   7.600
  | Found hydrogenic basis function :  3 s   6.400
 | Encountered keyword species, ending the description of species O                   .
  Species O                   : Missing cutoff potential type.
  Defaulting to exp(1/x)/(1-x)^2 type cutoff potential.
  Species O : No 'logarithmic' tag. Using default grid for free atom:
  | Default logarithmic grid data [bohr] : 0.1000E-03 0.1000E+03 0.1012E+01
  Species O : On-site basis accuracy parameter (for Gram-Schmidt orthonormalisation) not specified.
  Using default value basis_acc =  0.1000000E-03.
  Species O                   : Using default innermost maximum threshold i_radial=  2 for radial functions.
  Species O                   : Default cutoff onset for free atom density etc. : 0.35000000E+01 AA.
  Species O                   : Basic radial grid will be enhanced according to radial_multiplier =   1, to contain    36 grid points.

  Reading configuration options for species H                   .
  | Found nuclear charge :   1.0000
  | Found atomic mass :    1.0079400000000001      amu
  | Found l_max for Hartree potential  :   4
  | Found cutoff potl. onset [A], width [A], scale factor :    3.50000    1.50000    1.00000
  | Threshold for basis-dependent cutoff potential is   0.100000E-03
  | Found data for basic radial integration grid :    24 points, outermost radius =    5.000 A
  | Found multiplier for basic radial grid :   1
  | Found angular grid specification: user-specified.
  | Specified grid contains     5 separate shells.
  | Check grid settings after all constraints further below.
  | Found free-atom valence shell :  1 s   1.000
  | No ionic wave fns used. Skipping ion_occ.
  | Found hydrogenic basis function :  2 s   2.100
  | Found hydrogenic basis function :  2 p   3.500
  Species H                   : Missing cutoff potential type.
  Defaulting to exp(1/x)/(1-x)^2 type cutoff potential.
  Species H : No 'logarithmic' tag. Using default grid for free atom:
  | Default logarithmic grid data [bohr] : 0.1000E-03 0.1000E+03 0.1012E+01
  Species H : On-site basis accuracy parameter (for Gram-Schmidt orthonormalisation) not specified.
  Using default value basis_acc =  0.1000000E-03.
  Species H                   : Using default innermost maximum threshold i_radial=  2 for radial functions.
  Species H                   : Default cutoff onset for free atom density etc. : 0.35000000E+01 AA.
  Species H                   : Basic radial grid will be enhanced according to radial_multiplier =   1, to contain    24 grid points.

  Finished reading input file 'control.in'.

------------------------------------------------------------


------------------------------------------------------------
          Reading geometry description geometry.in.
------------------------------------------------------------
  | The smallest distance between any two atoms is         0.99984899 AA.
  | The first atom of this pair is atom number                      1 .
  | The second atom of this pair is atom number                     2 .
  Input structure read successfully.
  The structure contains        3 atoms,  and a total of         10.000 electrons.

  Input geometry:
  | No unit cell requested.
  | Atomic structure:
  |       Atom                x [A]            y [A]            z [A]
  |    1: Species O             0.00000000        0.00000000        0.00000000
  |    2: Species H             0.70700000       -0.70700000        0.00000000
  |    3: Species H            -0.70700000       -0.70700000        0.00000000

  Slab Identifier: This is not a periodic structure.

  Finished reading input file 'geometry.in'.



  Consistency checks for stacksize environment parameter are next.

  | Maximum stacksize for task 0: unlimited
  | Maximum stacksize for task 1: unlimited
  | Maximum stacksize for task 2: unlimited
  | Maximum stacksize for task 3: unlimited
  | Current stacksize for task 0: unlimited
  | Current stacksize for task 1: unlimited
  | Current stacksize for task 2: unlimited
  | Current stacksize for task 3: unlimited

  Consistency checks for the contents of control.in are next.

  MPI_IN_PLACE appears to work with this MPI implementation.
  | Keeping use_mpi_in_place .true. (see manual).
  Target number of points in a grid batch is not set. Defaulting to  100
  Method for grid partitioning is not set. Defaulting to parallel hash+maxmin partitioning.
  Batch size limit is not set. Defaulting to    200
  By default, will store active basis functions for each batch.
  If in need of memory, prune_basis_once .false. can be used to disable this option.
  communication_type for Hartree potential was not specified.
  Defaulting to calc_hartree .
  Defaulting to Pulay charge density mixer.
  Pulay mixer: Number of relevant iterations not set.
  Defaulting to    8 iterations.
  Pulay mixer: Number of initial linear mixing iterations not set.
  Defaulting to    0 iterations.
  Work space size for distributed Hartree potential not set.
  Defaulting to   0.200000E+03 MB.
  Mixing parameter for charge density mixing has not been set.
  Using default: charge_mix_param =     0.0500.
  The mixing parameter will be adjusted in iteration number     2 of the first full s.c.f. cycle only.
  Algorithm-dependent basis array size parameters:
  | n_max_pulay                         :        8
  Maximum number of self-consistency iterations not provided.
  Presetting  1000 iterations.
  Presetting      1001 iterations before the initial mixing cycle
  is restarted anyway using the sc_init_iter criterion / keyword.
  Presetting a factor      1.000 between actual scf density residual
  and density convergence criterion sc_accuracy_rho below which sc_init_iter
  takes no effect.
 * No s.c.f. convergence criteria (sc_accuracy_*) were provided in control.in.
 * The run will proceed with a reasonable default guess, but please check whether.
 * the s.c.f. cycles seem to take too much or too little time.
  No maximum number of relaxation steps, defaulting to     1000
  Default initial Hessian is Lindh matrix (thres = 15.00) plus  0.200000E+01 eV/A^2 times unity.
  No maximum energy tolerance for TRM/BFGS moves, defaulting to   0.150000E-02
  Maximum energy tolerance by which TRM/BFGS trajectory may increase over multiple steps:   0.300000E-02
  No harmonic length scale. Defaulting to   0.250000E-01 A.
  No trust radius initializer. Defaulting to   0.200000E+00 A.
  Forces evaluation will include force correction term due to incomplete self-consistency (default).
 * Notice: The s.c.f. convergence criterion sc_accuracy_rho was not provided.
 * We used to stop in this case, and ask the user to provide reasonable
 * scf convergence criteria. However, this led some users to employ criteria
 * that led to extremely long run times, e.g., for simple relaxation.
 * We now preset a default value for sc_accuracy_rho if it is not set.
 * You may still wish to check if this setting is too tight or too loose for your needs.
 * Based on n_atoms and forces and force-correction status, FHI-aims chose sc_accuracy_rho =  0.800000E-05 .
  Force calculation: scf convergence accuracy of forces not set.
  Defaulting to 'sc_accuracy_forces not_checked'.
  Handling of forces: Unphysical translation and rotation will be removed from forces.
  No accuracy limit for integral partition fn. given. Defaulting to  0.1000E-14.
  No threshold value for u(r) in integrations given. Defaulting to  0.1000E-05.
  No occupation type (smearing scheme) given. Defaulting to Gaussian broadening, width =  0.1000E-01 eV.
  The width will be adjusted in iteration number     2 of the first full s.c.f. cycle only.
  S.C.F. convergence parameters will be adjusted in iteration number     2 of the first full s.c.f. cycle only.
  No accuracy for occupation numbers given. Defaulting to  0.1000E-12.
  No threshold value for occupation numbers given. Defaulting to  0.0000E+00.
  No accuracy for fermi level given. Defaulting to  0.1000E-19.
  Maximum # of iterations to find E_F not set. Defaulting to  200.
  Preferred method for the eigenvalue solver ('KS_method') not specified in 'control.in'.
  Calling BLACS routine to test compilation state
  Since ScaLAPACK support is enabled, defaulting to ELPA (via ELSI).
  Will not use alltoall communication since running on < 1024 CPUs.
  Threshold for basis singularities not set.
  Default threshold for basis singularities:  0.1000E-04
  partition_type (choice of integration weights) for integrals was not specified.
  | Using a version of the partition function of Stratmann and coworkers ('stratmann_sparse').
  | At each grid point, the set of atoms used to build the partition table is smoothly restricted to
  | only those atoms whose free-atom density would be non-zero at that grid point.
  Partitioning for Hartree potential was not defined. Using partition_type for integrals.
  | Adjusted default value of keyword multip_moments_threshold to:       0.10000000E-11
  | This value may affect high angular momentum components of the Hartree potential in periodic systems.
  Spin handling was not defined in control.in. Defaulting to unpolarized case.
  No q(lm)/r^(l+1) cutoff set for long-range Hartree potential.
  | Using default value of  0.100000E-09 .
  | Verify using the multipole_threshold keyword.
  Defaulting to new monopole extrapolation.
  Density update method: automatic selection selected.
  Geometry relaxation: A file "geometry.in.next_step" is written out by default after each step.
  | This file contains the geometry of the current relaxation step as well as
  | the current Hessian matrix needed to restart the relaxation algorithm.
  | If you do not want part or all of this information, use the keywords
  | "write_restart_geometry" or "hessian_to_restart_geometry" to switch the output off.
  Charge integration errors on the 3D integration grid will be compensated
  by explicit normalization and distribution of residual charges.
  Use the "compensate_multipole_errors" flag to change this behaviour.
  Set 'collect_eigenvectors' to be '.true.' for use_density_matrix .false.

  Consistency checks for the contents of geometry.in are next.

 * Warning! You did not set the 'relativistic' flag in input file 'control.in'.
 * FHI-aims will default to 'relativistic atomic_zora scalar'.
 * You must ensure that this is really what you want!!
 * For example, DO NOT compute total-energy differences between results from
 * different settings of the 'relativistic' flag.
  Number of empty states per atom not set in control.in - providing a guess from actual geometry.
  | Total number of empty states used during s.c.f. cycle:        6
  If you use a very high smearing, use empty_states (per atom!) in control.in to increase this value.

  Structure-dependent array size parameters: 
  | Maximum number of distinct radial functions  :        9
  | Maximum number of basis functions            :       24
  | Number of Kohn-Sham states (occupied + empty):       11
------------------------------------------------------------
  After read_input_data [GB]:     56.62

  Performing system and environment tests:
  *** Environment variable OMP_NUM_THREADS is not set
  *** For performance reasons you might want to set it to 1
  | Checking for ScaLAPACK...
  | Testing pdtran()...
  | All pdtran() tests passed.
  After prepare_system [GB]:     56.61

------------------------------------------------------------
          Preparing all fixed parts of the calculation.
------------------------------------------------------------
  Determining machine precision:
     2.2250738585072014E-308
  Setting up grids for atomic and cluster calculations.

  Creating wave function, potential, and density for free atoms.
  Runtime choices for atomic solver:
  | atomic solver xc        : PBE
  | compute density gradient: 1
  | compute kinetic density : F

  Species: O

  List of occupied orbitals and eigenvalues:
    n    l              occ      energy [Ha]    energy [eV]
    1    0           2.0000       -18.926989      -515.0296
    2    0           2.0000        -0.880247       -23.9527
    2    1           4.0000        -0.331514        -9.0210


  Species: H

  List of occupied orbitals and eigenvalues:
    n    l              occ      energy [Ha]    energy [eV]
    1    0           1.0000        -0.237593        -6.4652


  Adding cutoff potential to free-atom effective potential.
  Creating fixed part of basis set: Ionic, confined, hydrogenic.

  O                    hydrogenic:

  List of hydrogenic basis orbitals: 
    n    l      effective z      eigenvalue [eV]  inner max. [A]     outer max. [A]     outer radius [A]   
    2    1         1.800000       -10.9749           1.164242           1.164242           4.578029
    3    2         7.600000       -87.3180           0.624125           0.624125           3.251020
    3    0         6.400000       -61.9207           0.061167           1.081902           4.001998


  H                    hydrogenic:

  List of hydrogenic basis orbitals: 
    n    l      effective z      eigenvalue [eV]  inner max. [A]     outer max. [A]     outer radius [A]   
    2    0         2.100000       -14.9728           0.193243           1.317208           4.583499
    2    1         3.500000       -41.6669           0.602369           0.602369           3.723403

  Creating atomic-like basis functions for current effective potential.

  Species O                   :

  List of atomic basis orbitals and eigenvalues:
    n    l      energy [Ha]    energy [eV]    outer radius [A]
    1    0       -18.926989      -515.0296       1.415765
    2    0        -0.880247       -23.9527       4.413171
    2    1        -0.331514        -9.0210       4.522403


  Species H                   :

  List of atomic basis orbitals and eigenvalues:
    n    l      energy [Ha]    energy [eV]    outer radius [A]
    1    0        -0.237593        -6.4652       4.527807

  Assembling full basis from fixed parts.
  | Species O :   atomic orbital   1 s accepted.
  | Species O :    hydro orbital   3 s accepted.
  | Species O :   atomic orbital   2 s accepted.
  | Species O :   atomic orbital   2 p accepted.
  | Species O :    hydro orbital   2 p accepted.
  | Species O :    hydro orbital   3 d accepted.
  | Species H :   atomic orbital   1 s accepted.
  | Species H :    hydro orbital   2 s accepted.
  | Species H :    hydro orbital   2 p accepted.

  Basis size parameters after reduction:
  | Total number of radial functions:        9
  | Total number of basis functions :       24

  Per-task memory consumption for arrays in subroutine allocate_ext:
  |           2.998708MB.
  Testing on-site integration grid accuracy.
  |  Species  Function  <phi|h_atom|phi> (log., in eV)  <phi|h_atom|phi> (rad., in eV)
           1        1               -515.0295626295               -515.0294562738
           1        2                 15.1698434419                 15.1699322204
           1        3                -21.6038822678                -21.6039118105
           1        4                 -9.0211123393                 -9.0212703513
           1        5                  8.3047696391                  8.2854840999
           1        6                 45.8428042125                 45.8427461222
           2        7                 -6.4664147733                 -6.4652229287
           2        8                 13.7099062243                 13.7158503352
           2        9                 25.2661739479                 25.2663166526

  Preparing densities etc. for the partition functions (integrals / Hartree potential).

  Preparations completed.
  max(cpu_time)          :      0.089 s.
  Wall clock time (cpu1) :      0.090 s.
------------------------------------------------------------
  After prepare_scf [GB]:     56.51

  Initializing index lists of integration centers etc. from given atomic structure:
  | Number of centers in hartree potential         :         3
  | Number of centers in hartree multipole         :         3
  | Number of centers in electron density summation:         3
  | Number of centers in basis integrals           :         3
  | Number of centers in integrals                 :         3
  | Number of centers in hamiltonian               :         3
  After initialize_bc_dependent_lists [GB]:     56.57

------------------------------------------------------------
          Begin self-consistency loop: Initialization.

          Date     :  20240501, Time     :  111941.884
------------------------------------------------------------

  Initializing relaxation algorithms.
  Finished initialization of distributed Hessian storage.
  | Global dimension:         9
  | BLACS block size:         3
  | Number of workers:        3

  Available memory per node after initialize_hartree_non_periodic_ewald [GB]:     56.57
  Available memory per node after initialize_recip_hartree_potential [GB]:     56.57
  * Using 4 tasks for Scalapack Eigenvalue solver.
  Detailed listing of tasks and assigned k-points:
  (for non-periodic systems, the "k-point" denotes an internal label only)
   Task     0 k-point     1 on arch
   Task     1 k-point     1 on arch
   Task     2 k-point     1 on arch
   Task     3 k-point     1 on arch
  Tasks:     4 split into      2 X      2 BLACS grid
  Calculating block size based on n_basis =           24  max_nprow =            2  max_npcol =            2
  ScaLAPACK block size set to:            8
  Allocating        0.002 MB for ovlp
  Allocating        0.002 MB for ham
  Allocating        0.002 MB for eigenvec
  Required Scalapack workspace - INTEGER:            1  REAL:             1
  Available memory per node after initialize_scalapack [GB]:     56.57
  Available memory per node after aims_elsi_init_scf [GB]:     56.57
  Available memory per node after initialize_fixed_grids [GB]:     56.57
  Partitioning the integration grid into batches with parallel hashing+maxmin method.
  | Number of batches:      248
  | Maximal batch size:     101
  | Minimal batch size:      49
  | Average batch size:      64.210
  | Standard deviation of batch sizes:       9.281

  Integration load balanced across     4 MPI tasks.
  Work distribution over tasks is as follows:
  Task     0 has       3947 integration points.
  Task     1 has       3986 integration points.
  Task     2 has       3984 integration points.
  Task     3 has       4007 integration points.
  Available memory per node after partition_grid [GB]:     56.57
  Initializing partition tables, free-atom densities, potentials, etc. across the integration grid (initialize_grid_storage).
  | initialize_grid_storage: Actual outermost partition radius vs. multipole_radius_free
  | (-- VB: in principle, multipole_radius_free should be larger, hence this output)
  | Species        1: Confinement radius =              4.999999999999999 AA, multipole_radius_free =              5.048384829883283 AA.
  | Species        1: outer_partition_radius set to              5.048384829883283 AA .
  | Species        2: Confinement radius =              4.999999999999999 AA, multipole_radius_free =              5.054417573612229 AA.
  | Species        2: outer_partition_radius set to              5.054417573612229 AA .
  | The sparse table of interatomic distances needs          0.09 kbyte instead of         0.07 kbyte of memory.
  | Using the partition_type stratmann_smoother will reduce your memory usage.
  | Net number of integration points:    15924
  | of which are non-zero points    :    14516
  Available memory per node after initialize_grid_storage_p1 [GB]:     56.57
  Renormalizing the initial density to the exact electron count on the 3D integration grid.
  | Initial density: Formal number of electrons (from input files) :      10.0000000000
  | Integrated number of electrons on 3D grid     :       9.9999491308
  | Charge integration error                      :      -0.0000508692
  | Normalization factor for density and gradient :       1.0000050869
  Renormalizing the free-atom superposition density to the exact electron count on the 3D integration grid.
  | Formal number of electrons (from input files) :      10.0000000000
  | Integrated number of electrons on 3D grid     :       9.9999491308
  | Charge integration error                      :      -0.0000508692
  | Normalization factor for density and gradient :       1.0000050869
  Obtaining max. number of non-zero basis functions in each batch (get_n_compute_maxes).
  | Maximal number of non-zero basis functions:       24 in task     0
  | Maximal number of non-zero basis functions:       24 in task     1
  | Maximal number of non-zero basis functions:       24 in task     2
  | Maximal number of non-zero basis functions:       24 in task     3
  Selecting the method for density update.
  Loop over occupied states selected for charge density update.
  Available memory per node after get_n_compute_maxes_p1 [GB]:     56.57
  Allocating        0.002 MB for KS_eigenvector
  Available memory per node after allocate_matrices [GB]:     56.57
  Available memory per node after init_comm_sparse_local_matrix_scalapack [GB]:     56.57
  Integrating Hamiltonian matrix: batch-based integration.
  Time summed over all CPUs for integration: real work        0.045 s, elapsed        0.046 s
  Available memory per node after integrate hamiltonian matrix [GB]:     56.57
  Integrating overlap matrix.
  Time summed over all CPUs for integration: real work        0.018 s, elapsed        0.018 s
  Available memory per node after integrate ovlp matrix [GB]:     56.57
  Available memory per node after ASI_callbacks invoke [GB]:     56.57
  Deallocating overlap matrix.
  Available memory per node after save_overlap_scalapack [GB]:     56.57

  Updating Kohn-Sham eigenvalues and eigenvectors using ELSI and the ELPA eigensolver.
  Overlap matrix is not singular
  | Lowest and highest eigenvalues :  0.1998E-01,  0.2747E+01
  Finished singularity check of overlap matrix
  | Time :     0.000 s
  Starting ELPA eigensolver
  Finished Cholesky decomposition
  | Time :     0.000 s
  Finished transformation to standard eigenproblem
  | Time :     0.000 s
  Finished solving standard eigenproblem
  | Time :     0.000 s
  Finished back-transformation of eigenvectors
  | Time :     0.000 s

  Obtaining occupation numbers and electronic chemical potential using ELSI.
  | Note that, for insulating systems, the printed 'chemical potential' value is not uniquely defined.
  | It can be anywhere in the energy gap, as long as it correctly separates occupied and unoccupied states.
  | In systems with a gap, the physically relevant chemical potential is the VBM or HOMO.

  | Chemical potential (Fermi level):    -9.85277976 eV
  Available memory per node after advance_KS_solution [GB]:     56.57
  Writing Kohn-Sham eigenvalues.

  State    Occupation    Eigenvalue [Ha]    Eigenvalue [eV]
      1       2.00000         -19.021171         -517.59239
      2       2.00000          -1.083446          -29.48206
      3       2.00000          -0.580030          -15.78342
      4       2.00000          -0.520632          -14.16712
      5       2.00000          -0.427176          -11.62405
      6       0.00000          -0.057406           -1.56209
      7       0.00000           0.021912            0.59625
      8       0.00000           0.212418            5.78019
      9       0.00000           0.252400            6.86815
     10       0.00000           0.296715            8.07401
     11       0.00000           0.555577           15.11802

  Highest occupied state (VBM) at    -11.62404713 eV
  | Occupation number:      2.00000000

  Lowest unoccupied state (CBM) at    -1.56208831 eV
  | Occupation number:      0.00000000

  Overall HOMO-LUMO gap:     10.06195882 eV.
  Calculating total energy contributions from superposition of free atom densities.

  Total energy components:
  | Sum of eigenvalues            :         -43.26490881 Ha       -1177.29806910 eV
  | XC energy correction          :          -9.01361057 Ha        -245.27282306 eV
  | XC potential correction       :          11.58886301 Ha         315.34900735 eV
  | Free-atom electrostatic energy:         -35.84190952 Ha        -975.30798126 eV
  | Hartree energy correction     :          -0.00000000 Ha          -0.00000000 eV
  | Entropy correction            :          -0.00000000 Ha          -0.00000000 eV
  | ---------------------------
  | Total energy                  :         -76.53156590 Ha       -2082.52986607 eV
  | Total energy, T -> 0          :         -76.53156590 Ha       -2082.52986607 eV  <-- do not rely on this value for anything but (periodic) metals
  | Electronic free energy        :         -76.53156590 Ha       -2082.52986607 eV

  Derived energy quantities:
  | Kinetic energy                :          75.71813971 Ha        2060.39541320 eV
  | Electrostatic energy          :        -143.23609503 Ha       -3897.65245621 eV
  | Energy correction for multipole
  | error in Hartree potential    :           0.00000000 Ha           0.00000000 eV
  | Sum of eigenvalues per atom                           :        -392.43268970 eV
  | Total energy (T->0) per atom                          :        -694.17662202 eV  <-- do not rely on this value for anything but (periodic) metals
  | Electronic free energy per atom                       :        -694.17662202 eV
  Initialize hartree_potential_storage
  Max. number of atoms included in rho_multipole:            3

  End scf initialization - timings             :  max(cpu_time)    wall_clock(cpu1)
  | Time for scf. initialization                :        0.038 s           0.038 s
  | Boundary condition initialization           :        0.008 s           0.008 s
  | Relaxation initialization                   :        0.000 s           0.000 s
  | Integration                                 :        0.016 s           0.016 s
  | Solution of K.-S. eqns.                     :        0.001 s           0.001 s
  | Grid partitioning                           :        0.006 s           0.007 s
  | Preloading free-atom quantities on grid     :        0.010 s           0.009 s
  | Free-atom superposition energy              :        0.004 s           0.004 s
  | Total energy evaluation                     :        0.000 s           0.000 s

  Partial memory accounting:
  | Current value for overall tracked memory usage:
  |   Minimum:        0.012 MB (on task 3)
  |   Maximum:        0.017 MB (on task 0)
  |   Average:        0.014 MB
  | Peak value for overall tracked memory usage:
  |   Minimum:        0.128 MB (on task 3 after allocating grid_partition)
  |   Maximum:        0.162 MB (on task 0 after allocating grid_partition)
  |   Average:        0.147 MB
  | Largest tracked array allocation so far:
  |   Minimum:        0.080 MB (all_coords on task 3)
  |   Maximum:        0.100 MB (all_coords on task 0)
  |   Average:        0.091 MB
  Note:  These values currently only include a subset of arrays which are explicitly tracked.
  The "true" memory usage will be greater.
------------------------------------------------------------
  Available memory after initialize_scf [GB]:     56.57
  Available memory after allocating mixing [GB]:     56.57
  Evaluating new KS density.
  Integration grid: deviation in total charge (<rho> - N_e) =   3.552714E-15

  Time for density update prior                :  max(cpu_time)    wall_clock(cpu1)
  | self-consistency iterative process          :        0.009 s           0.009 s
  Available memory before start of SCF loop [GB]:     56.57

------------------------------------------------------------
          Begin self-consistency iteration #    1

  Date     :  20240501, Time     :  111941.931
------------------------------------------------------------
  Pulay mixing of updated and previous charge densities.
  Available memory per node after mixing [GB]:     56.57
  Renormalizing the density to the exact electron count on the 3D integration grid.
  | Formal number of electrons (from input files) :      10.0000000000
  | Integrated number of electrons on 3D grid     :      10.0000000000
  | Charge integration error                      :       0.0000000000
  | Normalization factor for density and gradient :       1.0000000000

  Evaluating partitioned Hartree potential by multipole expansion.
  | Original multipole sum: apparent total charge =  -0.470432E-15
  | Sum of charges compensated after spline to logarithmic grids =   0.118052E-04
  | Analytical far-field extrapolation by fixed multipoles:
  | Hartree multipole sum: apparent total charge =  -0.535001E-15
  Summing up the Hartree potential.
  Time summed over all CPUs for potential: real work        0.006 s, elapsed        0.006 s
  | RMS charge density error from multipole expansion :   0.334238E-03

  Integrating Hamiltonian matrix: batch-based integration.
  Time summed over all CPUs for integration: real work        0.045 s, elapsed        0.046 s

  Updating Kohn-Sham eigenvalues and eigenvectors using ELSI and the ELPA eigensolver.
  Starting ELPA eigensolver
  Finished transformation to standard eigenproblem
  | Time :     0.000 s
  Finished solving standard eigenproblem
  | Time :     0.000 s
  Finished back-transformation of eigenvectors
  | Time :     0.000 s

  Obtaining occupation numbers and electronic chemical potential using ELSI.
  | Note that, for insulating systems, the printed 'chemical potential' value is not uniquely defined.
  | It can be anywhere in the energy gap, as long as it correctly separates occupied and unoccupied states.
  | In systems with a gap, the physically relevant chemical potential is the VBM or HOMO.

  | Chemical potential (Fermi level):    -9.66710853 eV
  Writing Kohn-Sham eigenvalues.

  State    Occupation    Eigenvalue [Ha]    Eigenvalue [eV]
      1       2.00000         -18.983765         -516.57453
      2       2.00000          -1.065265          -28.98735
      3       2.00000          -0.564182          -15.35218
      4       2.00000          -0.502245          -13.66679
      5       2.00000          -0.407530          -11.08946
      6       0.00000          -0.052931           -1.44031
      7       0.00000           0.028014            0.76230
      8       0.00000           0.220691            6.00531
      9       0.00000           0.261119            7.10541
     10       0.00000           0.302704            8.23701
     11       0.00000           0.560896           15.26276

  Highest occupied state (VBM) at    -11.08946294 eV
  | Occupation number:      2.00000000

  Lowest unoccupied state (CBM) at    -1.44031368 eV
  | Occupation number:      0.00000000

  Overall HOMO-LUMO gap:      9.64914926 eV.

  Total energy components:
  | Sum of eigenvalues            :         -43.04597599 Ha       -1171.34060396 eV
  | XC energy correction          :          -9.03797356 Ha        -245.93577368 eV
  | XC potential correction       :          11.62079779 Ha         316.21799687 eV
  | Free-atom electrostatic energy:         -35.84190952 Ha        -975.30798126 eV
  | Hartree energy correction     :          -0.21024037 Ha          -5.72093165 eV
  | Entropy correction            :          -0.00000000 Ha          -0.00000000 eV
  | ---------------------------
  | Total energy                  :         -76.51530166 Ha       -2082.08729368 eV
  | Total energy, T -> 0          :         -76.51530166 Ha       -2082.08729368 eV  <-- do not rely on this value for anything but (periodic) metals
  | Electronic free energy        :         -76.51530166 Ha       -2082.08729368 eV

  Derived energy quantities:
  | Kinetic energy                :          75.86485862 Ha        2064.38783789 eV
  | Electrostatic energy          :        -143.34218672 Ha       -3900.53935790 eV
  | Energy correction for multipole
  | error in Hartree potential    :           0.00006808 Ha           0.00185256 eV
  | Sum of eigenvalues per atom                           :        -390.44686799 eV
  | Total energy (T->0) per atom                          :        -694.02909789 eV  <-- do not rely on this value for anything but (periodic) metals
  | Electronic free energy per atom                       :        -694.02909789 eV
  Evaluating new KS density.
  Integration grid: deviation in total charge (<rho> - N_e) =   5.329071E-15

  Self-consistency convergence accuracy:
  | Change of charge density      :  0.2935E+00
  | Change of unmixed KS density  :  0.9125E+01
  | Change of sum of eigenvalues  :  0.5957E+01 eV
  | Change of total energy        :  0.4426E+00 eV


------------------------------------------------------------
  End self-consistency iteration #     1       :  max(cpu_time)    wall_clock(cpu1)
  | Time for this iteration                     :        0.028 s           0.028 s
  | Charge density update                       :        0.008 s           0.008 s
  | Density mixing                              :        0.000 s           0.000 s
  | Hartree multipole update                    :        0.001 s           0.001 s
  | Hartree multipole summation                 :        0.006 s           0.007 s
  | Integration                                 :        0.011 s           0.011 s
  | Solution of K.-S. eqns.                     :        0.000 s           0.000 s
  | Total energy evaluation                     :        0.000 s           0.000 s

  Partial memory accounting:
  | Current value for overall tracked memory usage:
  |   Minimum:        2.215 MB (on task 0)
  |   Maximum:        2.244 MB (on task 3)
  |   Average:        2.232 MB
  | Peak value for overall tracked memory usage:
  |   Minimum:        2.289 MB (on task 0 after allocating gradient_basis_wave)
  |   Maximum:        2.318 MB (on task 3 after allocating gradient_basis_wave)
  |   Average:        2.306 MB
  | Largest tracked array allocation so far:
  |   Minimum:        0.723 MB (previous_rho_gradient_diff on task 0)
  |   Maximum:        0.734 MB (previous_rho_gradient_diff on task 3)
  |   Average:        0.729 MB
  Note:  These values currently only include a subset of arrays which are explicitly tracked.
  The "true" memory usage will be greater.
------------------------------------------------------------

------------------------------------------------------------
          Begin self-consistency iteration #    2

  Date     :  20240501, Time     :  111941.960
------------------------------------------------------------
  Pulay mixing of updated and previous charge densities.
  Available memory per node after mixing [GB]:     56.56
  Renormalizing the density to the exact electron count on the 3D integration grid.
  | Formal number of electrons (from input files) :      10.0000000000
  | Integrated number of electrons on 3D grid     :      10.0000000000
  | Charge integration error                      :      -0.0000000000
  | Normalization factor for density and gradient :       1.0000000000

  Evaluating partitioned Hartree potential by multipole expansion.
  | Original multipole sum: apparent total charge =  -0.879369E-14
  | Sum of charges compensated after spline to logarithmic grids =   0.801720E-04
  | Analytical far-field extrapolation by fixed multipoles:
  | Hartree multipole sum: apparent total charge =  -0.894128E-14
  Summing up the Hartree potential.
  Time summed over all CPUs for potential: real work        0.006 s, elapsed        0.006 s
  | RMS charge density error from multipole expansion :   0.226947E-02

  Integrating Hamiltonian matrix: batch-based integration.
  Time summed over all CPUs for integration: real work        0.045 s, elapsed        0.046 s

  Updating Kohn-Sham eigenvalues and eigenvectors using ELSI and the ELPA eigensolver.
  Starting ELPA eigensolver
  Finished transformation to standard eigenproblem
  | Time :     0.000 s
  Finished solving standard eigenproblem
  | Time :     0.000 s
  Finished back-transformation of eigenvectors
  | Time :     0.000 s

  Obtaining occupation numbers and electronic chemical potential using ELSI.
  | Note that, for insulating systems, the printed 'chemical potential' value is not uniquely defined.
  | It can be anywhere in the energy gap, as long as it correctly separates occupied and unoccupied states.
  | In systems with a gap, the physically relevant chemical potential is the VBM or HOMO.

  | Chemical potential (Fermi level):    -4.48793035 eV
  Highest occupied state (VBM) at     -8.22581011 eV
  | Occupation number:      2.00000000

  Lowest unoccupied state (CBM) at    -0.72809679 eV
  | Occupation number:      0.00000000

  Overall HOMO-LUMO gap:      7.49771331 eV.

  Checking to see if s.c.f. parameters should be adjusted.
  The system likely has a gap. Increased the default Pulay mixing parameter (charge_mix_param). Value:   0.200000 .
  Kept the default occupation width. Value:   0.010000 eV.

  Total energy components:
  | Sum of eigenvalues            :         -41.87068659 Ha       -1139.35935208 eV
  | XC energy correction          :          -9.17497833 Ha        -249.66386310 eV
  | XC potential correction       :          11.80036496 Ha         321.10426829 eV
  | Free-atom electrostatic energy:         -35.84190952 Ha        -975.30798126 eV
  | Hartree energy correction     :          -1.38115576 Ha         -37.58316054 eV
  | Entropy correction            :          -0.00000000 Ha          -0.00000000 eV
  | ---------------------------
  | Total energy                  :         -76.46836524 Ha       -2080.81008868 eV
  | Total energy, T -> 0          :         -76.46836524 Ha       -2080.81008868 eV  <-- do not rely on this value for anything but (periodic) metals
  | Electronic free energy        :         -76.46836524 Ha       -2080.81008868 eV

  Derived energy quantities:
  | Kinetic energy                :          76.58441667 Ha        2083.96800859 eV
  | Electrostatic energy          :        -143.87780358 Ha       -3915.11423417 eV
  | Energy correction for multipole
  | error in Hartree potential    :           0.00025390 Ha           0.00690888 eV
  | Sum of eigenvalues per atom                           :        -379.78645069 eV
  | Total energy (T->0) per atom                          :        -693.60336289 eV  <-- do not rely on this value for anything but (periodic) metals
  | Electronic free energy per atom                       :        -693.60336289 eV
  Evaluating new KS density.
  Integration grid: deviation in total charge (<rho> - N_e) =   0.000000E+00

  Self-consistency convergence accuracy:
  | Change of charge density      :  0.2565E+00
  | Change of unmixed KS density  :  0.2938E-01
  | Change of sum of eigenvalues  :  0.3198E+02 eV
  | Change of total energy        :  0.1277E+01 eV


------------------------------------------------------------
  End self-consistency iteration #     2       :  max(cpu_time)    wall_clock(cpu1)
  | Time for this iteration                     :        0.028 s           0.028 s
  | Charge density update                       :        0.008 s           0.009 s
  | Density mixing                              :        0.001 s           0.000 s
  | Hartree multipole update                    :        0.001 s           0.001 s
  | Hartree multipole summation                 :        0.006 s           0.006 s
  | Integration                                 :        0.011 s           0.012 s
  | Solution of K.-S. eqns.                     :        0.000 s           0.000 s
  | Total energy evaluation                     :        0.000 s           0.000 s

  Partial memory accounting:
  | Current value for overall tracked memory usage:
  |   Minimum:        2.216 MB (on task 0)
  |   Maximum:        2.245 MB (on task 3)
  |   Average:        2.233 MB
  | Peak value for overall tracked memory usage:
  |   Minimum:        2.290 MB (on task 0 after allocating gradient_basis_wave)
  |   Maximum:        2.319 MB (on task 3 after allocating gradient_basis_wave)
  |   Average:        2.307 MB
  | Largest tracked array allocation so far:
  |   Minimum:        0.723 MB (previous_rho_gradient_diff on task 0)
  |   Maximum:        0.734 MB (previous_rho_gradient_diff on task 3)
  |   Average:        0.729 MB
  Note:  These values currently only include a subset of arrays which are explicitly tracked.
  The "true" memory usage will be greater.
------------------------------------------------------------

------------------------------------------------------------
          Begin self-consistency iteration #    3

  Date     :  20240501, Time     :  111941.988
------------------------------------------------------------
  Pulay mixing of updated and previous charge densities.
  Available memory per node after mixing [GB]:     56.56
  Renormalizing the density to the exact electron count on the 3D integration grid.
  | Formal number of electrons (from input files) :      10.0000000000
  | Integrated number of electrons on 3D grid     :      10.0000000000
  | Charge integration error                      :      -0.0000000000
  | Normalization factor for density and gradient :       1.0000000000

  Evaluating partitioned Hartree potential by multipole expansion.
  | Original multipole sum: apparent total charge =  -0.145496E-13
  | Sum of charges compensated after spline to logarithmic grids =   0.642434E-04
  | Analytical far-field extrapolation by fixed multipoles:
  | Hartree multipole sum: apparent total charge =  -0.144389E-13
  Summing up the Hartree potential.
  Time summed over all CPUs for potential: real work        0.006 s, elapsed        0.006 s
  | RMS charge density error from multipole expansion :   0.375532E-02

  Integrating Hamiltonian matrix: batch-based integration.
  Time summed over all CPUs for integration: real work        0.045 s, elapsed        0.046 s

  Updating Kohn-Sham eigenvalues and eigenvectors using ELSI and the ELPA eigensolver.
  Starting ELPA eigensolver
  Finished transformation to standard eigenproblem
  | Time :     0.000 s
  Finished solving standard eigenproblem
  | Time :     0.000 s
  Finished back-transformation of eigenvectors
  | Time :     0.000 s

  Obtaining occupation numbers and electronic chemical potential using ELSI.
  | Note that, for insulating systems, the printed 'chemical potential' value is not uniquely defined.
  | It can be anywhere in the energy gap, as long as it correctly separates occupied and unoccupied states.
  | In systems with a gap, the physically relevant chemical potential is the VBM or HOMO.

  | Chemical potential (Fermi level):    -8.88019651 eV
  Highest occupied state (VBM) at     -9.28472739 eV
  | Occupation number:      2.00000000

  Lowest unoccupied state (CBM) at    -0.88559913 eV
  | Occupation number:      0.00000000

  Overall HOMO-LUMO gap:      8.39912827 eV.

  Total energy components:
  | Sum of eigenvalues            :         -42.41669865 Ha       -1154.21709612 eV
  | XC energy correction          :          -9.11070222 Ha        -247.91482109 eV
  | XC potential correction       :          11.71560778 Ha         318.79790800 eV
  | Free-atom electrostatic energy:         -35.84190952 Ha        -975.30798126 eV
  | Hartree energy correction     :          -0.82714206 Ha         -22.50768067 eV
  | Entropy correction            :          -0.00000000 Ha          -0.00000000 eV
  | ---------------------------
  | Total energy                  :         -76.48084467 Ha       -2081.14967113 eV
  | Total energy, T -> 0          :         -76.48084467 Ha       -2081.14967113 eV  <-- do not rely on this value for anything but (periodic) metals
  | Electronic free energy        :         -76.48084467 Ha       -2081.14967113 eV

  Derived energy quantities:
  | Kinetic energy                :          75.94922508 Ha        2066.68356622 eV
  | Electrostatic energy          :        -143.31936753 Ha       -3899.91841627 eV
  | Energy correction for multipole
  | error in Hartree potential    :          -0.00180597 Ha          -0.04914289 eV
  | Sum of eigenvalues per atom                           :        -384.73903204 eV
  | Total energy (T->0) per atom                          :        -693.71655704 eV  <-- do not rely on this value for anything but (periodic) metals
  | Electronic free energy per atom                       :        -693.71655704 eV
  Evaluating new KS density.
  Integration grid: deviation in total charge (<rho> - N_e) =  -5.329071E-15

  Self-consistency convergence accuracy:
  | Change of charge density      :  0.1198E+00
  | Change of unmixed KS density  :  0.1697E+00
  | Change of sum of eigenvalues  : -0.1486E+02 eV
  | Change of total energy        : -0.3396E+00 eV


------------------------------------------------------------
  End self-consistency iteration #     3       :  max(cpu_time)    wall_clock(cpu1)
  | Time for this iteration                     :        0.029 s           0.029 s
  | Charge density update                       :        0.009 s           0.009 s
  | Density mixing                              :        0.001 s           0.001 s
  | Hartree multipole update                    :        0.001 s           0.001 s
  | Hartree multipole summation                 :        0.006 s           0.006 s
  | Integration                                 :        0.011 s           0.012 s
  | Solution of K.-S. eqns.                     :        0.000 s           0.000 s
  | Total energy evaluation                     :        0.000 s           0.000 s

  Partial memory accounting:
  | Current value for overall tracked memory usage:
  |   Minimum:        2.217 MB (on task 0)
  |   Maximum:        2.245 MB (on task 3)
  |   Average:        2.233 MB
  | Peak value for overall tracked memory usage:
  |   Minimum:        2.291 MB (on task 0 after allocating gradient_basis_wave)
  |   Maximum:        2.319 MB (on task 3 after allocating gradient_basis_wave)
  |   Average:        2.307 MB
  | Largest tracked array allocation so far:
  |   Minimum:        0.723 MB (previous_rho_gradient_diff on task 0)
  |   Maximum:        0.734 MB (previous_rho_gradient_diff on task 3)
  |   Average:        0.729 MB
  Note:  These values currently only include a subset of arrays which are explicitly tracked.
  The "true" memory usage will be greater.
------------------------------------------------------------

------------------------------------------------------------
          Begin self-consistency iteration #    4

  Date     :  20240501, Time     :  111942.017
------------------------------------------------------------
  Pulay mixing of updated and previous charge densities.
  Available memory per node after mixing [GB]:     56.56
  Renormalizing the density to the exact electron count on the 3D integration grid.
  | Formal number of electrons (from input files) :      10.0000000000
  | Integrated number of electrons on 3D grid     :      10.0000000000
  | Charge integration error                      :      -0.0000000000
  | Normalization factor for density and gradient :       1.0000000000

  Evaluating partitioned Hartree potential by multipole expansion.
  | Original multipole sum: apparent total charge =  -0.115609E-14
  | Sum of charges compensated after spline to logarithmic grids =   0.118501E-03
  | Analytical far-field extrapolation by fixed multipoles:
  | Hartree multipole sum: apparent total charge =  -0.145127E-14
  Summing up the Hartree potential.
  Time summed over all CPUs for potential: real work        0.006 s, elapsed        0.006 s
  | RMS charge density error from multipole expansion :   0.597063E-02

  Integrating Hamiltonian matrix: batch-based integration.
  Time summed over all CPUs for integration: real work        0.045 s, elapsed        0.046 s

  Updating Kohn-Sham eigenvalues and eigenvectors using ELSI and the ELPA eigensolver.
  Starting ELPA eigensolver
  Finished transformation to standard eigenproblem
  | Time :     0.000 s
  Finished solving standard eigenproblem
  | Time :     0.000 s
  Finished back-transformation of eigenvectors
  | Time :     0.000 s

  Obtaining occupation numbers and electronic chemical potential using ELSI.
  | Note that, for insulating systems, the printed 'chemical potential' value is not uniquely defined.
  | It can be anywhere in the energy gap, as long as it correctly separates occupied and unoccupied states.
  | In systems with a gap, the physically relevant chemical potential is the VBM or HOMO.

  | Chemical potential (Fermi level):    -3.95623221 eV
  Highest occupied state (VBM) at     -7.49852338 eV
  | Occupation number:      2.00000000

  Lowest unoccupied state (CBM) at    -0.34076596 eV
  | Occupation number:      0.00000000

  Overall HOMO-LUMO gap:      7.15775742 eV.

  Total energy components:
  | Sum of eigenvalues            :         -41.73461653 Ha       -1135.65669734 eV
  | XC energy correction          :          -9.19706099 Ha        -250.26476288 eV
  | XC potential correction       :          11.82862888 Ha         321.87336843 eV
  | Free-atom electrostatic energy:         -35.84190952 Ha        -975.30798126 eV
  | Hartree energy correction     :          -1.51923748 Ha         -41.34055508 eV
  | Entropy correction            :          -0.00000000 Ha          -0.00000000 eV
  | ---------------------------
  | Total energy                  :         -76.46419564 Ha       -2080.69662813 eV
  | Total energy, T -> 0          :         -76.46419564 Ha       -2080.69662813 eV  <-- do not rely on this value for anything but (periodic) metals
  | Electronic free energy        :         -76.46419564 Ha       -2080.69662813 eV

  Derived energy quantities:
  | Kinetic energy                :          76.18878713 Ha        2073.20238107 eV
  | Electrostatic energy          :        -143.45592178 Ha       -3903.63424633 eV
  | Energy correction for multipole
  | error in Hartree potential    :          -0.00279162 Ha          -0.07596381 eV
  | Sum of eigenvalues per atom                           :        -378.55223245 eV
  | Total energy (T->0) per atom                          :        -693.56554271 eV  <-- do not rely on this value for anything but (periodic) metals
  | Electronic free energy per atom                       :        -693.56554271 eV
  Evaluating new KS density.
  Integration grid: deviation in total charge (<rho> - N_e) =  -1.776357E-15

  Self-consistency convergence accuracy:
  | Change of charge density      :  0.1509E+00
  | Change of unmixed KS density  :  0.1001E+00
  | Change of sum of eigenvalues  :  0.1856E+02 eV
  | Change of total energy        :  0.4530E+00 eV


------------------------------------------------------------
  End self-consistency iteration #     4       :  max(cpu_time)    wall_clock(cpu1)
  | Time for this iteration                     :        0.029 s           0.029 s
  | Charge density update                       :        0.008 s           0.009 s
  | Density mixing                              :        0.001 s           0.001 s
  | Hartree multipole update                    :        0.001 s           0.001 s
  | Hartree multipole summation                 :        0.006 s           0.006 s
  | Integration                                 :        0.011 s           0.012 s
  | Solution of K.-S. eqns.                     :        0.000 s           0.000 s
  | Total energy evaluation                     :        0.000 s           0.000 s

  Partial memory accounting:
  | Current value for overall tracked memory usage:
  |   Minimum:        2.217 MB (on task 0)
  |   Maximum:        2.246 MB (on task 3)
  |   Average:        2.233 MB
  | Peak value for overall tracked memory usage:
  |   Minimum:        2.291 MB (on task 0 after allocating gradient_basis_wave)
  |   Maximum:        2.320 MB (on task 3 after allocating gradient_basis_wave)
  |   Average:        2.307 MB
  | Largest tracked array allocation so far:
  |   Minimum:        0.723 MB (previous_rho_gradient_diff on task 0)
  |   Maximum:        0.734 MB (previous_rho_gradient_diff on task 3)
  |   Average:        0.729 MB
  Note:  These values currently only include a subset of arrays which are explicitly tracked.
  The "true" memory usage will be greater.
------------------------------------------------------------

------------------------------------------------------------
          Begin self-consistency iteration #    5

  Date     :  20240501, Time     :  111942.046
------------------------------------------------------------
  Pulay mixing of updated and previous charge densities.
  Available memory per node after mixing [GB]:     56.56
  Renormalizing the density to the exact electron count on the 3D integration grid.
  | Formal number of electrons (from input files) :      10.0000000000
  | Integrated number of electrons on 3D grid     :      10.0000000000
  | Charge integration error                      :      -0.0000000000
  | Normalization factor for density and gradient :       1.0000000000

  Evaluating partitioned Hartree potential by multipole expansion.
  | Original multipole sum: apparent total charge =  -0.688737E-14
  | Sum of charges compensated after spline to logarithmic grids =   0.116248E-03
  | Analytical far-field extrapolation by fixed multipoles:
  | Hartree multipole sum: apparent total charge =  -0.654300E-14
  Summing up the Hartree potential.
  Time summed over all CPUs for potential: real work        0.006 s, elapsed        0.006 s
  | RMS charge density error from multipole expansion :   0.596215E-02

  Integrating Hamiltonian matrix: batch-based integration.
  Time summed over all CPUs for integration: real work        0.045 s, elapsed        0.046 s

  Updating Kohn-Sham eigenvalues and eigenvectors using ELSI and the ELPA eigensolver.
  Starting ELPA eigensolver
  Finished transformation to standard eigenproblem
  | Time :     0.000 s
  Finished solving standard eigenproblem
  | Time :     0.000 s
  Finished back-transformation of eigenvectors
  | Time :     0.000 s

  Obtaining occupation numbers and electronic chemical potential using ELSI.
  | Note that, for insulating systems, the printed 'chemical potential' value is not uniquely defined.
  | It can be anywhere in the energy gap, as long as it correctly separates occupied and unoccupied states.
  | In systems with a gap, the physically relevant chemical potential is the VBM or HOMO.

  | Chemical potential (Fermi level):    -3.96645286 eV
  Highest occupied state (VBM) at     -7.51904958 eV
  | Occupation number:      2.00000000

  Lowest unoccupied state (CBM) at    -0.34806686 eV
  | Occupation number:      0.00000000

  Overall HOMO-LUMO gap:      7.17098272 eV.

  Total energy components:
  | Sum of eigenvalues            :         -41.74268834 Ha       -1135.87634256 eV
  | XC energy correction          :          -9.19606104 Ha        -250.23755274 eV
  | XC potential correction       :          11.82730725 Ha         321.83740521 eV
  | Free-atom electrostatic energy:         -35.84190952 Ha        -975.30798126 eV
  | Hartree energy correction     :          -1.51090807 Ha         -41.11390052 eV
  | Entropy correction            :          -0.00000000 Ha          -0.00000000 eV
  | ---------------------------
  | Total energy                  :         -76.46425972 Ha       -2080.69837186 eV
  | Total energy, T -> 0          :         -76.46425972 Ha       -2080.69837186 eV  <-- do not rely on this value for anything but (periodic) metals
  | Electronic free energy        :         -76.46425972 Ha       -2080.69837186 eV

  Derived energy quantities:
  | Kinetic energy                :          76.18662827 Ha        2073.14363551 eV
  | Electrostatic energy          :        -143.45482695 Ha       -3903.60445463 eV
  | Energy correction for multipole
  | error in Hartree potential    :          -0.00276347 Ha          -0.07519773 eV
  | Sum of eigenvalues per atom                           :        -378.62544752 eV
  | Total energy (T->0) per atom                          :        -693.56612395 eV  <-- do not rely on this value for anything but (periodic) metals
  | Electronic free energy per atom                       :        -693.56612395 eV
  Evaluating new KS density.
  Integration grid: deviation in total charge (<rho> - N_e) =   5.329071E-15

  Self-consistency convergence accuracy:
  | Change of charge density      :  0.2666E-01
  | Change of unmixed KS density  :  0.9112E-01
  | Change of sum of eigenvalues  : -0.2196E+00 eV
  | Change of total energy        : -0.1744E-02 eV


------------------------------------------------------------
  End self-consistency iteration #     5       :  max(cpu_time)    wall_clock(cpu1)
  | Time for this iteration                     :        0.029 s           0.029 s
  | Charge density update                       :        0.009 s           0.008 s
  | Density mixing                              :        0.001 s           0.002 s
  | Hartree multipole update                    :        0.001 s           0.001 s
  | Hartree multipole summation                 :        0.006 s           0.006 s
  | Integration                                 :        0.011 s           0.011 s
  | Solution of K.-S. eqns.                     :        0.000 s           0.000 s
  | Total energy evaluation                     :        0.000 s           0.000 s

  Partial memory accounting:
  | Current value for overall tracked memory usage:
  |   Minimum:        2.217 MB (on task 0)
  |   Maximum:        2.246 MB (on task 3)
  |   Average:        2.233 MB
  | Peak value for overall tracked memory usage:
  |   Minimum:        2.291 MB (on task 0 after allocating gradient_basis_wave)
  |   Maximum:        2.320 MB (on task 3 after allocating gradient_basis_wave)
  |   Average:        2.307 MB
  | Largest tracked array allocation so far:
  |   Minimum:        0.723 MB (previous_rho_gradient_diff on task 0)
  |   Maximum:        0.734 MB (previous_rho_gradient_diff on task 3)
  |   Average:        0.729 MB
  Note:  These values currently only include a subset of arrays which are explicitly tracked.
  The "true" memory usage will be greater.
------------------------------------------------------------

------------------------------------------------------------
          Begin self-consistency iteration #    6

  Date     :  20240501, Time     :  111942.075
------------------------------------------------------------
  Pulay mixing of updated and previous charge densities.
  Available memory per node after mixing [GB]:     56.56
  Renormalizing the density to the exact electron count on the 3D integration grid.
  | Formal number of electrons (from input files) :      10.0000000000
  | Integrated number of electrons on 3D grid     :      10.0000000000
  | Charge integration error                      :       0.0000000000
  | Normalization factor for density and gradient :       1.0000000000

  Evaluating partitioned Hartree potential by multipole expansion.
  | Original multipole sum: apparent total charge =   0.491955E-16
  | Sum of charges compensated after spline to logarithmic grids =   0.151906E-03
  | Analytical far-field extrapolation by fixed multipoles:
  | Hartree multipole sum: apparent total charge =  -0.368966E-15
  Summing up the Hartree potential.
  Time summed over all CPUs for potential: real work        0.006 s, elapsed        0.006 s
  | RMS charge density error from multipole expansion :   0.630234E-02

  Integrating Hamiltonian matrix: batch-based integration.
  Time summed over all CPUs for integration: real work        0.045 s, elapsed        0.046 s

  Updating Kohn-Sham eigenvalues and eigenvectors using ELSI and the ELPA eigensolver.
  Starting ELPA eigensolver
  Finished transformation to standard eigenproblem
  | Time :     0.000 s
  Finished solving standard eigenproblem
  | Time :     0.000 s
  Finished back-transformation of eigenvectors
  | Time :     0.000 s

  Obtaining occupation numbers and electronic chemical potential using ELSI.
  | Note that, for insulating systems, the printed 'chemical potential' value is not uniquely defined.
  | It can be anywhere in the energy gap, as long as it correctly separates occupied and unoccupied states.
  | In systems with a gap, the physically relevant chemical potential is the VBM or HOMO.

  | Chemical potential (Fermi level):    -3.76720563 eV
  Highest occupied state (VBM) at     -7.13107090 eV
  | Occupation number:      2.00000000

  Lowest unoccupied state (CBM) at    -0.20509201 eV
  | Occupation number:      0.00000000

  Overall HOMO-LUMO gap:      6.92597889 eV.

  Total energy components:
  | Sum of eigenvalues            :         -41.59470111 Ha       -1131.84940495 eV
  | XC energy correction          :          -9.21506821 Ha        -250.75476420 eV
  | XC potential correction       :          11.85236401 Ha         322.51923439 eV
  | Free-atom electrostatic energy:         -35.84190952 Ha        -975.30798126 eV
  | Hartree energy correction     :          -1.66428646 Ha         -45.28753892 eV
  | Entropy correction            :          -0.00000000 Ha          -0.00000000 eV
  | ---------------------------
  | Total energy                  :         -76.46360129 Ha       -2080.68045494 eV
  | Total energy, T -> 0          :         -76.46360129 Ha       -2080.68045494 eV  <-- do not rely on this value for anything but (periodic) metals
  | Electronic free energy        :         -76.46360129 Ha       -2080.68045494 eV

  Derived energy quantities:
  | Kinetic energy                :          76.21575873 Ha        2073.93631571 eV
  | Electrostatic energy          :        -143.46429181 Ha       -3903.86200645 eV
  | Energy correction for multipole
  | error in Hartree potential    :          -0.00329084 Ha          -0.08954818 eV
  | Sum of eigenvalues per atom                           :        -377.28313498 eV
  | Total energy (T->0) per atom                          :        -693.56015165 eV  <-- do not rely on this value for anything but (periodic) metals
  | Electronic free energy per atom                       :        -693.56015165 eV
  Evaluating new KS density.
  Integration grid: deviation in total charge (<rho> - N_e) =   3.552714E-15

  Self-consistency convergence accuracy:
  | Change of charge density      :  0.2804E-01
  | Change of unmixed KS density  :  0.1098E-02
  | Change of sum of eigenvalues  :  0.4027E+01 eV
  | Change of total energy        :  0.1792E-01 eV


------------------------------------------------------------
  End self-consistency iteration #     6       :  max(cpu_time)    wall_clock(cpu1)
  | Time for this iteration                     :        0.029 s           0.030 s
  | Charge density update                       :        0.009 s           0.009 s
  | Density mixing                              :        0.002 s           0.002 s
  | Hartree multipole update                    :        0.001 s           0.001 s
  | Hartree multipole summation                 :        0.006 s           0.006 s
  | Integration                                 :        0.011 s           0.012 s
  | Solution of K.-S. eqns.                     :        0.000 s           0.000 s
  | Total energy evaluation                     :        0.000 s           0.000 s

  Partial memory accounting:
  | Current value for overall tracked memory usage:
  |   Minimum:        2.217 MB (on task 0)
  |   Maximum:        2.246 MB (on task 3)
  |   Average:        2.234 MB
  | Peak value for overall tracked memory usage:
  |   Minimum:        2.291 MB (on task 0 after allocating gradient_basis_wave)
  |   Maximum:        2.320 MB (on task 3 after allocating gradient_basis_wave)
  |   Average:        2.308 MB
  | Largest tracked array allocation so far:
  |   Minimum:        0.723 MB (previous_rho_gradient_diff on task 0)
  |   Maximum:        0.734 MB (previous_rho_gradient_diff on task 3)
  |   Average:        0.729 MB
  Note:  These values currently only include a subset of arrays which are explicitly tracked.
  The "true" memory usage will be greater.
------------------------------------------------------------

------------------------------------------------------------
          Begin self-consistency iteration #    7

  Date     :  20240501, Time     :  111942.105
------------------------------------------------------------
  Pulay mixing of updated and previous charge densities.
  Available memory per node after mixing [GB]:     56.54
  Renormalizing the density to the exact electron count on the 3D integration grid.
  | Formal number of electrons (from input files) :      10.0000000000
  | Integrated number of electrons on 3D grid     :      10.0000000000
  | Charge integration error                      :       0.0000000000
  | Normalization factor for density and gradient :       1.0000000000

  Evaluating partitioned Hartree potential by multipole expansion.
  | Original multipole sum: apparent total charge =  -0.156934E-13
  | Sum of charges compensated after spline to logarithmic grids =   0.155487E-03
  | Analytical far-field extrapolation by fixed multipoles:
  | Hartree multipole sum: apparent total charge =  -0.155212E-13
  Summing up the Hartree potential.
  Time summed over all CPUs for potential: real work        0.006 s, elapsed        0.006 s
  | RMS charge density error from multipole expansion :   0.632120E-02

  Integrating Hamiltonian matrix: batch-based integration.
  Time summed over all CPUs for integration: real work        0.045 s, elapsed        0.046 s

  Updating Kohn-Sham eigenvalues and eigenvectors using ELSI and the ELPA eigensolver.
  Starting ELPA eigensolver
  Finished transformation to standard eigenproblem
  | Time :     0.000 s
  Finished solving standard eigenproblem
  | Time :     0.001 s
  Finished back-transformation of eigenvectors
  | Time :     0.000 s

  Obtaining occupation numbers and electronic chemical potential using ELSI.
  | Note that, for insulating systems, the printed 'chemical potential' value is not uniquely defined.
  | It can be anywhere in the energy gap, as long as it correctly separates occupied and unoccupied states.
  | In systems with a gap, the physically relevant chemical potential is the VBM or HOMO.

  | Chemical potential (Fermi level):    -3.75300058 eV
  Highest occupied state (VBM) at     -7.09854984 eV
  | Occupation number:      2.00000000

  Lowest unoccupied state (CBM) at    -0.19467059 eV
  | Occupation number:      0.00000000

  Overall HOMO-LUMO gap:      6.90387924 eV.

  Total energy components:
  | Sum of eigenvalues            :         -41.58222461 Ha       -1131.50990233 eV
  | XC energy correction          :          -9.21661980 Ha        -250.79698509 eV
  | XC potential correction       :          11.85441739 Ha         322.57510964 eV
  | Free-atom electrostatic energy:         -35.84190952 Ha        -975.30798126 eV
  | Hartree energy correction     :          -1.67725721 Ha         -45.64049074 eV
  | Entropy correction            :          -0.00000000 Ha          -0.00000000 eV
  | ---------------------------
  | Total energy                  :         -76.46359375 Ha       -2080.68024978 eV
  | Total energy, T -> 0          :         -76.46359375 Ha       -2080.68024978 eV  <-- do not rely on this value for anything but (periodic) metals
  | Electronic free energy        :         -76.46359375 Ha       -2080.68024978 eV

  Derived energy quantities:
  | Kinetic energy                :          76.21912758 Ha        2074.02798688 eV
  | Electrostatic energy          :        -143.46610153 Ha       -3903.91125157 eV
  | Energy correction for multipole
  | error in Hartree potential    :          -0.00333292 Ha          -0.09069323 eV
  | Sum of eigenvalues per atom                           :        -377.16996744 eV
  | Total energy (T->0) per atom                          :        -693.56008326 eV  <-- do not rely on this value for anything but (periodic) metals
  | Electronic free energy per atom                       :        -693.56008326 eV
  Evaluating new KS density.
  Integration grid: deviation in total charge (<rho> - N_e) =   0.000000E+00

  Self-consistency convergence accuracy:
  | Change of charge density      :  0.3137E-02
  | Change of unmixed KS density  :  0.1956E-01
  | Change of sum of eigenvalues  :  0.3395E+00 eV
  | Change of total energy        :  0.2052E-03 eV


------------------------------------------------------------
[...]
  | Solution of K.-S. eqns.                     :        0.000 s           0.000 s
  | Total energy evaluation                     :        0.000 s           0.000 s

  Partial memory accounting:
  | Current value for overall tracked memory usage:
  |   Minimum:        2.213 MB (on task 3)
  |   Maximum:        2.257 MB (on task 0)
  |   Average:        2.236 MB
  | Peak value for overall tracked memory usage:
  |   Minimum:        2.442 MB (on task 1 after allocating hessian_basis_wave)
  |   Maximum:        2.462 MB (on task 0 after allocating hessian_basis_wave)
  |   Average:        2.451 MB
  | Largest tracked array allocation so far:
  |   Minimum:        0.729 MB (previous_rho_gradient_diff on task 2)
  |   Maximum:        0.735 MB (previous_rho_gradient_diff on task 0)
  |   Average:        0.732 MB
  Note:  These values currently only include a subset of arrays which are explicitly tracked.
  The "true" memory usage will be greater.
------------------------------------------------------------

------------------------------------------------------------
          Begin self-consistency iteration #    6

  Date     :  20240501, Time     :  111943.470
------------------------------------------------------------
  Pulay mixing of updated and previous charge densities.
  Available memory per node after mixing [GB]:     56.54
  Renormalizing the density to the exact electron count on the 3D integration grid.
  | Formal number of electrons (from input files) :      10.0000000000
  | Integrated number of electrons on 3D grid     :      10.0000000000
  | Charge integration error                      :      -0.0000000000
  | Normalization factor for density and gradient :       1.0000000000

  Evaluating partitioned Hartree potential by multipole expansion.
  | Original multipole sum: apparent total charge =   0.260736E-14
  | Sum of charges compensated after spline to logarithmic grids =   0.163078E-03
  | Analytical far-field extrapolation by fixed multipoles:
  | Hartree multipole sum: apparent total charge =   0.125448E-14
  Summing up the Hartree potential.
  Time summed over all CPUs for potential: real work        0.016 s, elapsed        0.017 s
  | RMS charge density error from multipole expansion :   0.647132E-02

  Integrating Hamiltonian matrix: batch-based integration.
  Time summed over all CPUs for integration: real work        0.045 s, elapsed        0.046 s

  Updating Kohn-Sham eigenvalues and eigenvectors using ELSI and the ELPA eigensolver.
  Starting ELPA eigensolver
  Finished transformation to standard eigenproblem
  | Time :     0.000 s
  Finished solving standard eigenproblem
  | Time :     0.000 s
  Finished back-transformation of eigenvectors
  | Time :     0.000 s

  Obtaining occupation numbers and electronic chemical potential using ELSI.
  | Note that, for insulating systems, the printed 'chemical potential' value is not uniquely defined.
  | It can be anywhere in the energy gap, as long as it correctly separates occupied and unoccupied states.
  | In systems with a gap, the physically relevant chemical potential is the VBM or HOMO.

  | Chemical potential (Fermi level):    -0.82076980 eV
  Highest occupied state (VBM) at     -7.06933586 eV
  | Occupation number:      2.00000000

  Lowest unoccupied state (CBM) at     0.06780929 eV
  | Occupation number:      0.00000000

  Overall HOMO-LUMO gap:      7.13714515 eV.

  Total energy components:
  | Sum of eigenvalues            :         -41.58026790 Ha       -1131.45665754 eV
  | XC energy correction          :          -9.23994044 Ha        -251.43157198 eV
  | XC potential correction       :          11.88518963 Ha         323.41246496 eV
  | Free-atom electrostatic energy:         -35.73813989 Ha        -972.48426592 eV
  | Hartree energy correction     :          -1.79602122 Ha         -48.87222403 eV
  | Entropy correction            :          -0.00000000 Ha          -0.00000000 eV
  | ---------------------------
  | Total energy                  :         -76.46917982 Ha       -2080.83225451 eV
  | Total energy, T -> 0          :         -76.46917982 Ha       -2080.83225451 eV  <-- do not rely on this value for anything but (periodic) metals
  | Electronic free energy        :         -76.46917982 Ha       -2080.83225451 eV

  Derived energy quantities:
  | Kinetic energy                :          76.27402757 Ha        2075.52189159 eV
  | Electrostatic energy          :        -143.50326695 Ha       -3904.92257411 eV
  | Energy correction for multipole
  | error in Hartree potential    :          -0.00338831 Ha          -0.09220053 eV
  | Sum of eigenvalues per atom                           :        -377.15221918 eV
  | Total energy (T->0) per atom                          :        -693.61075150 eV  <-- do not rely on this value for anything but (periodic) metals
  | Electronic free energy per atom                       :        -693.61075150 eV
  Evaluating new KS density and force components.
  Integration grid: deviation in total charge (<rho> - N_e) =   0.000000E+00

  atomic forces [eV/Ang]:
  -----------------------
  atom #    1
   Hellmann-Feynman              : -0.419611E-11  0.175031E+02 -0.717534E-12
   Ionic forces                  :  0.000000E+00  0.000000E+00  0.000000E+00
   Multipole                     :  0.195355E-13 -0.903363E-01 -0.345662E-14
   Hartree pot. SCF incomplete   : -0.474611E-12 -0.112513E-05  0.211613E-12
   Pulay + GGA                   : -0.305431E-11 -0.174194E+02  0.290588E-11
   ----------------------------------------------------------------
   Total forces(   1)            : -0.770550E-11 -0.664696E-02  0.239650E-11
  atom #    2
   Hellmann-Feynman              :  0.295407E+00 -0.312217E+00  0.232044E-13
   Ionic forces                  :  0.000000E+00  0.000000E+00  0.000000E+00
   Multipole                     : -0.451616E-02 -0.316694E-01  0.112828E-14
   Hartree pot. SCF incomplete   : -0.293077E-06  0.342815E-06  0.141411E-13
   Pulay + GGA                   : -0.291028E+00  0.337374E+00 -0.278760E-16
   ----------------------------------------------------------------
   Total forces(   2)            : -0.137685E-03 -0.651194E-02  0.384459E-13
  atom #    3
   Hellmann-Feynman              : -0.295407E+00 -0.312217E+00  0.202656E-13
   Ionic forces                  :  0.000000E+00  0.000000E+00  0.000000E+00
   Multipole                     :  0.451616E-02 -0.316694E-01 -0.132411E-15
   Hartree pot. SCF incomplete   :  0.293077E-06  0.342815E-06  0.108879E-13
   Pulay + GGA                   :  0.291028E+00  0.337374E+00 -0.135589E-13
   ----------------------------------------------------------------
   Total forces(   3)            :  0.137685E-03 -0.651194E-02  0.174623E-13


  Self-consistency convergence accuracy:
  | Change of charge density      :  0.2872E-06
  | Change of unmixed KS density  :  0.8768E-06
  | Change of sum of eigenvalues  : -0.7717E-05 eV
  | Change of total energy        : -0.5833E-08 eV
  | Change of forces              :  0.4728E+00 eV/A

  Writing Kohn-Sham eigenvalues.

  State    Occupation    Eigenvalue [Ha]    Eigenvalue [eV]
      1       2.00000         -18.788544         -511.26229
      2       2.00000          -0.925130          -25.17407
      3       2.00000          -0.478394          -13.01776
      4       2.00000          -0.338273           -9.20487
      5       2.00000          -0.259793           -7.06934
      6       0.00000           0.002492            0.06781
      7       0.00000           0.100447            2.73329
      8       0.00000           0.298241            8.11554
      9       0.00000           0.334241            9.09515
     10       0.00000           0.369692           10.05984
     11       0.00000           0.574946           15.64509

  Highest occupied state (VBM) at     -7.06933586 eV
  | Occupation number:      2.00000000

  Lowest unoccupied state (CBM) at     0.06780929 eV
  | Occupation number:      0.00000000

  Overall HOMO-LUMO gap:      7.13714515 eV.

  | Chemical Potential                          :    -0.82076980 eV
  | Note that, for insulating systems, the printed 'chemical potential' value is not uniquely defined.
  | It can be anywhere in the energy gap, as long as it correctly separates occupied and unoccupied states.
  | In systems with a gap, the physically relevant chemical potential is the VBM or HOMO.

  Self-consistency cycle converged.


------------------------------------------------------------
  End self-consistency iteration #     6       :  max(cpu_time)    wall_clock(cpu1)
  | Time for this iteration                     :        0.072 s           0.073 s
  | Charge density & force component update     :        0.030 s           0.031 s
  | Density mixing                              :        0.001 s           0.001 s
  | Hartree multipole update                    :        0.001 s           0.002 s
  | Hartree multipole summation                 :        0.017 s           0.016 s
  | Hartree pot. SCF incomplete forces          :        0.011 s           0.010 s
  | Integration                                 :        0.011 s           0.012 s
  | Solution of K.-S. eqns.                     :        0.000 s           0.000 s
  | Total energy evaluation                     :        0.000 s           0.000 s

  Partial memory accounting:
  | Current value for overall tracked memory usage:
  |   Minimum:        2.213 MB (on task 3)
  |   Maximum:        2.257 MB (on task 0)
  |   Average:        2.236 MB
  | Peak value for overall tracked memory usage:
  |   Minimum:        2.442 MB (on task 1 after allocating hessian_basis_wave)
  |   Maximum:        2.462 MB (on task 0 after allocating hessian_basis_wave)
  |   Average:        2.451 MB
  | Largest tracked array allocation so far:
  |   Minimum:        0.729 MB (previous_rho_gradient_diff on task 2)
  |   Maximum:        0.735 MB (previous_rho_gradient_diff on task 0)
  |   Average:        0.732 MB
  Note:  These values currently only include a subset of arrays which are explicitly tracked.
  The "true" memory usage will be greater.
------------------------------------------------------------
  Removing unitary transformations (pure translations, rotations) from forces on atoms.
  Atomic forces before filtering:
  | Net force on center of mass :  -0.308755E-11 -0.196708E-01  0.245241E-11 eV/A
  | Net torque on center of mass:   0.942995E-12 -0.161009E-13  0.124996E-11 eV
  Atomic forces after filtering:
  | Net force on center of mass :  -0.217781E-19  0.557519E-17 -0.113582E-26 eV/A
  | Net torque on center of mass:   0.323004E-28  0.124503E-27 -0.824000E-18 eV

  Energy and forces in a compact form:
  | Total energy uncorrected      :         -0.208083225450630E+04 eV
  | Total energy corrected        :         -0.208083225450630E+04 eV  <-- do not rely on this value for anything but (periodic) metals
  | Electronic free energy        :         -0.208083225450630E+04 eV
  Total atomic forces (unitary forces cleaned) [eV/Ang]:
  |    1         -0.632469472942813E-11         -0.900095529694541E-04         -0.324518849313061E-27
  |    2         -0.137684561607316E-03          0.450047740234745E-04         -0.486778273969592E-27
  |    3          0.137684567932011E-03          0.450047789459852E-04         -0.324518849313061E-27

  ------------------------------------ 
  Start decomposition of the XC Energy 
  ------------------------------------ 
  X and C from original XC functional choice 
  Hartree-Fock Energy :          0.000000000 Ha              0.000000000 eV
  X Energy            :         -8.914977684 Ha           -242.588885575 eV
  C Energy            :         -0.324962753 Ha             -8.842686407 eV
  XC Energy w/o HF    :         -9.239940437 Ha           -251.431571982 eV
  Total XC Energy     :         -9.239940437 Ha           -251.431571982 eV
  ------------------------------------ 
  LDA X and C from self-consistent density 
  X Energy LDA        :         -8.098839354 Ha           -220.380631668 eV
  C Energy LDA        :         -0.659361470 Ha            -17.942138486 eV
  ------------------------------------ 
  End decomposition of the XC Energy 
  ------------------------------------ 

------------------------------------------------------------
  Relaxation / MD: End force evaluation.       :  max(cpu_time)    wall_clock(cpu1)
  | Time for this force evaluation              :        0.255 s           0.258 s

------------------------------------------------------------
  Geometry optimization: Attempting to predict improved coordinates.

  Removing unitary transformations (pure translations, rotations) from forces on atoms.
  Atomic forces before filtering:
  | Net force on center of mass :  -0.217781E-19  0.557519E-17 -0.113582E-26 eV/A
  | Net torque on center of mass:   0.323004E-28  0.124503E-27 -0.824000E-18 eV
  Atomic forces after filtering:
  | Net force on center of mass :   0.217781E-19 -0.108890E-19  0.432346E-42 eV/A
  | Net torque on center of mass:  -0.610829E-43  0.337508E-43  0.000000E+00 eV
  Net remaining forces (excluding translations, rotations) in present geometry:
  || Forces on atoms   || =   0.137685E-03 eV/A.
  Maximum force component is  0.137685E-03 eV/A.
  Present geometry is converged.

------------------------------------------------------------
  Final atomic structure:
                         x [A]             y [A]             z [A]
            atom         0.00000000       -0.07320103       -0.00000000  O
            atom         0.76731112       -0.67039949       -0.00000000  H
            atom        -0.76731112       -0.67039949       -0.00000000  H
------------------------------------------------------------

------------------------------------------------------------------------------
  Final output of selected total energy values:

  The following output summarizes some interesting total energy values
  at the end of a run (AFTER all relaxation, molecular dynamics, etc.).

  | Total energy of the DFT / Hartree-Fock s.c.f. calculation      :          -2080.832254506 eV
  | Final zero-broadening corrected energy (caution - metals only) :          -2080.832254506 eV
  | For reference only, the value of 1 Hartree used in FHI-aims is :             27.211384500 eV

  Before relying on these values, please be sure to understand exactly which
  total energy value is referred to by a given number. Different objects may
  all carry the same name 'total energy'. Definitions:

  Total energy of the DFT / Hartree-Fock s.c.f. calculation:
  | Note that this energy does not include ANY quantities calculated after the
  | s.c.f. cycle, in particular not ANY RPA, MP2, etc. many-body perturbation terms.

  Final zero-broadening corrected energy:
  | For metallic systems only, a broadening of the occupation numbers at the Fermi
  | level can be extrapolated back to zero broadening by an electron-gas inspired
  | formula. For all systems that are not real metals, this value can be
  | meaningless and should be avoided.

------------------------------------------------------------------------------
  Methods described in the following list of references were used in this FHI-aims run.
  If you publish the results, please make sure to cite these reference if they apply.
  FHI-aims is an academic code, and for our developers (often, Ph.D. students
  and postdocs), scientific credit in the community is essential.
  Thank you for helping us!

  For any use of FHI-aims, please cite:

    Volker Blum, Ralf Gehrke, Felix Hanke, Paula Havu, Ville Havu,
    Xinguo Ren, Karsten Reuter, and Matthias Scheffler
    'Ab initio molecular simulations with numeric atom-centered orbitals'
    Computer Physics Communications 180, 2175-2196 (2009)
    http://doi.org/10.1016/j.cpc.2009.06.022


  The ELSI infrastructure was used in your run to solve the Kohn-Sham electronic structure.
  Please check out http://elsi-interchange.org to learn more.
  If scalability is important for your project, please acknowledge ELSI by citing:

    V. W-z. Yu, F. Corsetti, A. Garcia, W. P. Huhn, M. Jacquelin, W. Jia,
    B. Lange, L. Lin, J. Lu, W. Mi, A. Seifitokaldani, A. Vazquez-Mayagoitia,
    C. Yang, H. Yang, and V. Blum
    'ELSI: A unified software interface for Kohn-Sham electronic structure solvers'
    Computer Physics Communications 222, 267-285 (2018).
    http://doi.org/10.1016/j.cpc.2017.09.007


  For the real-space grid partitioning and parallelization used in this calculation, please cite:

    Ville Havu, Volker Blum, Paula Havu, and Matthias Scheffler,
    'Efficient O(N) integration for all-electron electronic structure calculation'
    'using numerically tabulated basis functions'
    Journal of Computational Physics 228, 8367-8379 (2009).
    http://doi.org/10.1016/j.jcp.2009.08.008

  Of course, there are many other important community references, e.g., those cited in the
  above references. Our list is limited to references that describe implementations in the
  FHI-aims code. The reason is purely practical (length of this list) - please credit others as well.

------------------------------------------------------------
          Leaving FHI-aims.
          Date     :  20240501, Time     :  111943.547

          Computational steps:
          | Number of self-consistency cycles          :           42
          | Number of SCF (re)initializations          :            5
          | Number of relaxation steps                 :            4

          Detailed time accounting                     :  max(cpu_time)    wall_clock(cpu1)
          | Total time                                  :        1.764 s           1.771 s
          | Preparation time                            :        0.089 s           0.090 s
          | Boundary condition initalization            :        0.040 s           0.038 s
          | Grid partitioning                           :        0.031 s           0.033 s
          | Preloading free-atom quantities on grid     :        0.044 s           0.044 s
          | Free-atom superposition energy              :        0.018 s           0.018 s
          | Total time for integrations                 :        0.515 s           0.516 s
          | Total time for solution of K.-S. equations  :        0.014 s           0.012 s
          | Total time for EV reorthonormalization      :        0.000 s           0.001 s
          | Total time for density & force components   :        0.510 s           0.511 s
          | Total time for mixing                       :        0.048 s           0.049 s
          | Total time for Hartree multipole update     :        0.044 s           0.047 s
          | Total time for Hartree multipole sum        :        0.304 s           0.306 s
          | Total time for total energy evaluation      :        0.004 s           0.007 s
          | Total time NSC force correction             :        0.054 s           0.053 s
          | Total time for scaled ZORA corrections      :        0.000 s           0.000 s

          Partial memory accounting:
          | Residual value for overall tracked memory usage across tasks:     0.000000 MB (should be 0.000000 MB)
          | Peak values for overall tracked memory usage:
          |   Minimum:        2.442 MB (on task 1 after allocating hessian_basis_wave)
          |   Maximum:        2.462 MB (on task 0 after allocating hessian_basis_wave)
          |   Average:        2.451 MB
          | Largest tracked array allocation:
          |   Minimum:        0.729 MB (previous_rho_gradient_diff on task 2)
          |   Maximum:        0.735 MB (previous_rho_gradient_diff on task 0)
          |   Average:        0.732 MB
          Note:  These values currently only include a subset of arrays which are explicitly tracked.
          The "true" memory usage will be greater.

          Have a nice day.
------------------------------------------------------------
