------------------------------------------------------------
          Invoking FHI-aims ...

          When using FHI-aims, please cite the following reference:

            Volker Blum, Ralf Gehrke, Felix Hanke, Paula Havu,
            Ville Havu, Xinguo Ren, Karsten Reuter, and Matthias Scheffler,
            'Ab Initio Molecular Simulations with Numeric Atom-Centered Orbitals',
            Computer Physics Communications 180, 2175-2196 (2009)

          In addition, many other developments in FHI-aims are likely important for
          your particular application. If so, please cite them. A partial list of references
          is written at the end of this file. Thank you for giving credit to the authors
          of these developments.

          For general information about FHI-aims please find us at

            https://fhi-aims.org

          Online tutorials can be found at

            https://fhi-aims-club.gitlab.io/tutorials/tutorials-overview/

          For any questions about FHI-aims, please visit our slack channel at

            https://fhi-aims.slack.com

          and our main development and support site at

            https://aims-git.rz-berlin.mpg.de .

          The latter site, in particular, has a wiki to collect information, as well
          as an issue tracker to log discussions, suggest improvements, and report issues
          or bugs. https://aims-git.rz-berlin.mpg.de is also the main development site
          of the project and all new and updated code versions can be obtained there.
          Please send an email to aims-coordinators@fhi-berlin.mpg.de and we will add
          you to these sites. They are for you and everyone is welcome there.

------------------------------------------------------------



  Date     :  20240406, Time     :  000335.231
  Time zero on CPU 1             :   0.229565500000000E+01  s.
  Internal wall clock time zero  :           481593815.231  s.

  FHI-aims created a unique identifier for this run for later identification
  aims_uuid : 99FCF6DE-F865-4569-A4A6-773743C2BEAC

  Build configuration of the current instance of FHI-aims
  -------------------------------------------------------
  FHI-aims version      : 240403
  Commit number         : e4fc253a2
  CMake host system     : Linux-5.14.21-150400.24.46_12.0.70-cray_shasta_c
  CMake version         : 3.21.3
  Fortran compiler      : /opt/cray/pe/craype/2.7.19/bin/ftn (GNU) version 11.2.0
  Fortran compiler flags: -O3 -ffree-line-length-none -fallow-argument-mismatch
  C compiler            : /opt/cray/pe/craype/2.7.19/bin/cc (GNU) version 11.2.0
  C compiler flags      : -Ofast -ftree-vectorize -funroll-loops -ffast-math
  C++ compiler          : /opt/cray/pe/craype/2.7.19/bin/CC (GNU) version 11.2.0
  C++ compiler flags    : -O3
  HIP compiler          :
  HIP compiler flags    :
  HIP GPU arch          :
  ELPA2 kernel          : AVX2
  Using MPI
  Using ScaLAPACK
  Using LibXC
  Using i-PI
  Using RLSY
  Linking against:

  Using       64 parallel tasks.
  Task        0 on host nid002778 reporting.
  Task        1 on host nid002778 reporting.
  Task        2 on host nid002778 reporting.
  Task        3 on host nid002778 reporting.
  Task        4 on host nid002778 reporting.
  Task        5 on host nid002778 reporting.
  Task        6 on host nid002778 reporting.
  Task        7 on host nid002778 reporting.
  Task        8 on host nid002778 reporting.
  Task        9 on host nid002778 reporting.
  Task       10 on host nid002778 reporting.
  Task       11 on host nid002778 reporting.
  Task       12 on host nid002778 reporting.
  Task       13 on host nid002778 reporting.
  Task       14 on host nid002778 reporting.
  Task       15 on host nid002778 reporting.
  Task       16 on host nid002778 reporting.
  Task       17 on host nid002778 reporting.
  Task       18 on host nid002778 reporting.
  Task       19 on host nid002778 reporting.
  Task       20 on host nid002778 reporting.
  Task       21 on host nid002778 reporting.
  Task       22 on host nid002778 reporting.
  Task       23 on host nid002778 reporting.
  Task       24 on host nid002778 reporting.
  Task       25 on host nid002778 reporting.
  Task       26 on host nid002778 reporting.
  Task       27 on host nid002778 reporting.
  Task       28 on host nid002778 reporting.
  Task       29 on host nid002778 reporting.
  Task       30 on host nid002778 reporting.
  Task       31 on host nid002778 reporting.
  Task       32 on host nid002778 reporting.
  Task       33 on host nid002778 reporting.
  Task       34 on host nid002778 reporting.
  Task       35 on host nid002778 reporting.
  Task       36 on host nid002778 reporting.
  Task       37 on host nid002778 reporting.
  Task       38 on host nid002778 reporting.
  Task       39 on host nid002778 reporting.
  Task       40 on host nid002778 reporting.
  Task       41 on host nid002778 reporting.
  Task       42 on host nid002778 reporting.
  Task       43 on host nid002778 reporting.
  Task       44 on host nid002778 reporting.
  Task       45 on host nid002778 reporting.
  Task       46 on host nid002778 reporting.
  Task       47 on host nid002778 reporting.
  Task       48 on host nid002778 reporting.
  Task       49 on host nid002778 reporting.
  Task       50 on host nid002778 reporting.
  Task       51 on host nid002778 reporting.
  Task       52 on host nid002778 reporting.
  Task       53 on host nid002778 reporting.
  Task       54 on host nid002778 reporting.
  Task       55 on host nid002778 reporting.
  Task       56 on host nid002778 reporting.
  Task       57 on host nid002778 reporting.
  Task       58 on host nid002778 reporting.
  Task       59 on host nid002778 reporting.
  Task       60 on host nid002778 reporting.
  Task       61 on host nid002778 reporting.
  Task       62 on host nid002778 reporting.
  Task       63 on host nid002778 reporting.

  Memory overcommitment is allowed on your operating system.

  Obtaining array dimensions for all initial allocations:
  
  -----------------------------------------------------------------------
  Parsing control.in (first pass over file, find array dimensions only).
  The contents of control.in will be repeated verbatim below
  unless switched off by setting 'verbatim_writeout .false.' .
  in the first line of control.in .
  -----------------------------------------------------------------------
  
  # General Settings:
  xc	                           hse06 0.11
  hse_unit                           bohr-1
  #periodic_hf coulomb_threshold      1e-06
  #exx_band_structure_version         1
  #periodic_hf screening_threshold    1e-06
  #split_atoms                        .false.
  RI_method                          lvl_fast
  
  spin	                           none
  charge	                           0.0
  relativistic	                   atomic_zora scalar
  occupation_type	                   gaussian 0.05
  k_grid	                           24 24 24
  
  # Convergence Criteria:
  sc_accuracy_etot                   1e-06
  sc_accuracy_eev                    1e-03
  sc_accuracy_rho                    1e-05
  sc_accuracy_forces                 1e-03
  sc_iter_limit	                   200
  
  # Other Settings:
  many_body_dispersion_nl
  #use_dipole_correction	           .true.
  compensate_multipole_errors	   .true.
  #use_local_index                    .true.
  #load_balancing                     .true.
  
  #############################################
  species Cu
  
  nucleus 29
  mass 63.546
  l_hartree 6
  cut_pot 4.0 2.0 1.0
  basis_dep_cutoff 1e-4
  radial_base 53 7.0
  radial_multiplier 2
  
  # Angular grid divisions
  angular_grids specified
  division 0.3478 50
  division 0.6638 110
  division 0.9718 194
  division 1.1992 302
  division 1.5920 434
  # division 1.8557 590
  # division 2.0466 770
  # division 2.0877 974
  # division 2.4589 1202
  outer_grid 434
  
  # Minimal basis functions
  valence 4 s 1.
  valence 3 p 6.
  valence 3 d 10.
  ion_occ 4 s 0.
  ion_occ 3 p 6.
  ion_occ 3 d 9.
  
  # Additional basis functions
  ionic 4 p auto
  hydro 4 f 7.4
  hydro 3 s 2.6
  hydro 3 d 5
  hydro 5 g 10.4
  # hydro 4 p 5.8
  # hydro 3 d 2.7
  # hydro 6 h 15.2
  # hydro 5 s 10.8
  # hydro 4 f 16
  # hydro 4 d 6
  # hydro 3 p 2.4
  # hydro 4 f 6.4
  # hydro 3 s 6.8
  # hydro 5 g 11.2
  # hydro 4 p 7
  # hydro 4 s 4
  # hydro 6 h 14
  # hydro 4 d 8.6
  # hydro 5 f 15.2
  
  
  -----------------------------------------------------------------------
  Completed first pass over input file control.in .
  -----------------------------------------------------------------------
  
  
  -----------------------------------------------------------------------
  Parsing geometry.in (first pass over file, find array dimensions only).
  The contents of geometry.in will be repeated verbatim below
  unless switched off by setting 'verbatim_writeout .false.' .
  in the first line of geometry.in .
  -----------------------------------------------------------------------
  
  lattice_vector     1.79800000     1.79800000     0.00000000
  lattice_vector     1.79800000     0.00000000     1.79800000
  lattice_vector     0.00000000     1.79800000     1.79800000
  atom     0.00000000     0.00000000     0.00000000 Cu
  
  -----------------------------------------------------------------------
  Completed first pass over input file geometry.in .
  -----------------------------------------------------------------------
  

  Basic array size parameters:
  | Number of species                 :        1
  | Number of atoms                   :        1
  | Number of lattice vectors         :        3
  | Max. basis fn. angular momentum   :        4
  | Max. atomic/ionic basis occupied n:        4
  | Max. number of basis fn. types    :        3
  | Max. radial fns per species/type  :        7
  | Max. logarithmic grid size        :     1406
  | Max. radial integration grid size :      107
  | Max. angular integration grid size:      434
  | Max. angular grid division number :        8
  | Radial grid for Hartree potential :     1406
  | Number of spin channels           :        1

------------------------------------------------------------
          Reading file control.in.
------------------------------------------------------------

  XC: Using HSE-functional with OMEGA =  0.110000E+00 <units>.
  XC: For the actual units (bohr^-1 or Angstrom^-1), see below.
  hse_unit: Unit for the HSE06 hybrid functional screening parameter set to bohr^(-1).
  The 'LVL' version of RI (resolution of identity) technique is used.
  ** This is a localized expansion of all basis function products.
     Its intended use are Hartree-Fock and hybrid functionals.
     For RPA, MP2, GW, etc., LVL is not yet as accurate. In those cases, check carefully.
  Spin treatment: No spin polarisation.
  Charge =   0.000000E+00: Neutral system requested explicitly.
  Scalar relativistic treatment of kinetic energy: on-site free-atom approximation to ZORA.
  Occupation type: Gaussian broadening, width =   0.500000E-01 eV.
  Found k-point grid:        24        24        24
  Convergence accuracy of total energy:  0.1000E-05
  Convergence accuracy of sum of eigenvalues:  0.1000E-02
  Convergence accuracy of self-consistent charge density:  0.1000E-04
  Convergence accuracy of forces:  0.1000E-02
  Maximum number of s.-c. iterations  :   200
  Using libMBD for calculating MBD and TS energies
  Charge integration errors on the 3D integration grid will be compensated
  by explicit normalization and distribution of residual charges.
  This choice is critical if you do DFPT calculations, since it is not yet
  implemented in the DFPT routines (including friction and magnetic_response).

  Reading configuration options for species Cu                  .
  | Found nuclear charge :  29.0000
  | Found atomic mass :    63.545999999999999      amu
  | Found l_max for Hartree potential  :   6
  | Found cutoff potl. onset [A], width [A], scale factor :    4.00000    2.00000    1.00000
  | Threshold for basis-dependent cutoff potential is   0.100000E-03
  | Found data for basic radial integration grid :    53 points, outermost radius =    7.000 A
  | Found multiplier for basic radial grid :   2
  | Found angular grid specification: user-specified.
  | Specified grid contains     6 separate shells.
  | Check grid settings after all constraints further below.
  | Found free-atom valence shell :  4 s   1.000
  | Found free-atom valence shell :  3 p   6.000
  | Found free-atom valence shell :  3 d  10.000
  | Found free-ion valence shell :  4 s   0.000
  | Found free-ion valence shell :  3 p   6.000
  | Found free-ion valence shell :  3 d   9.000
  | Found ionic basis function :  4 p , default cutoff radius.
  | Found hydrogenic basis function :  4 f   7.400
  | Found hydrogenic basis function :  3 s   2.600
  | Found hydrogenic basis function :  3 d   5.000
  | Found hydrogenic basis function :  5 g  10.400
  Species Cu                  : Missing cutoff potential type.
  Defaulting to exp(1/x)/(1-x)^2 type cutoff potential.
  Species Cu: No 'logarithmic' tag. Using default grid for free atom:
  | Default logarithmic grid data [bohr] : 0.1000E-03 0.1000E+03 0.1012E+01
  | Will include ionic basis functions of  2.0-fold positive Cu                   ion.
  Species Cu: On-site basis accuracy parameter (for Gram-Schmidt orthonormalisation) not specified.
  Using default value basis_acc =  0.1000000E-03.
  Species Cu                  : Using default innermost maximum threshold i_radial=  2 for radial functions.
  Species Cu                  : Default cutoff onset for free atom density etc. : 0.40000000E+01 AA.
  Species Cu                  : Basic radial grid will be enhanced according to radial_multiplier =   2, to contain   107 grid points.

  Finished reading input file 'control.in'.

------------------------------------------------------------


------------------------------------------------------------
          Reading geometry description geometry.in.
------------------------------------------------------------
  | The smallest distance between any two atoms is         2.54275599 AA.
  | The first atom of this pair is atom number                      1 .
  | The second atom of this pair is atom number                     1 .
  | Wigner-Seitz cell of the first atom image          -1     0     1 .
  | (The Wigner-Seitz cell of the second atom is 0 0 0  by definition.)

  Symmetry information by spglib:
  | Precision set to  0.1E-04
  | Number of Operations  : 48
  | Space group           : 225
  | International         : Fm-3m   p C
  | Schoenflies           : Oh^5
  Input structure read successfully.
  The structure contains        1 atoms,  and a total of         29.000 electrons.

  Input geometry:
  | Unit cell:
  |        1.79800000        1.79800000        0.00000000
  |        1.79800000        0.00000000        1.79800000
  |        0.00000000        1.79800000        1.79800000
  | Atomic structure:
  |       Atom                x [A]            y [A]            z [A]
  |    1: Species Cu            0.00000000        0.00000000        0.00000000

  Lattice parameters for 3D lattice (in Angstroms) :     2.542756    2.542756    2.542756
  Angle(s) between unit vectors (in degrees)       :    60.000000   60.000000   60.000000


  Quantities derived from the lattice vectors (in Angstrom^-1):
  | Reciprocal lattice vector 1:  1.747271  1.747271 -1.747271
  | Reciprocal lattice vector 2:  1.747271 -1.747271  1.747271
  | Reciprocal lattice vector 3: -1.747271  1.747271  1.747271
  | Unit cell volume                               :   0.116252E+02  Angstrom^3

  Fractional coordinates:
                         L1                L2                L3
       atom_frac         0.00000000        0.00000000        0.00000000  Cu

  Slab Identifier: This seems to be a bulk system.

  Finished reading input file 'geometry.in'.



  Consistency checks for stacksize environment parameter are next.

  | Maximum stacksize for task 0: unlimited
  | Maximum stacksize for task 1: unlimited
  | Maximum stacksize for task 2: unlimited
  | Maximum stacksize for task 3: unlimited
  | Maximum stacksize for task 4: unlimited
  | Maximum stacksize for task 5: unlimited
  | Maximum stacksize for task 6: unlimited
  | Maximum stacksize for task 7: unlimited
  | Maximum stacksize for task 8: unlimited
  | Maximum stacksize for task 9: unlimited
  | Maximum stacksize for task 10: unlimited
  | Maximum stacksize for task 11: unlimited
  | Maximum stacksize for task 12: unlimited
  | Maximum stacksize for task 13: unlimited
  | Maximum stacksize for task 14: unlimited
  | Maximum stacksize for task 15: unlimited
  | Maximum stacksize for task 16: unlimited
  | Maximum stacksize for task 17: unlimited
  | Maximum stacksize for task 18: unlimited
  | Maximum stacksize for task 19: unlimited
  | Maximum stacksize for task 20: unlimited
  | Maximum stacksize for task 21: unlimited
  | Maximum stacksize for task 22: unlimited
  | Maximum stacksize for task 23: unlimited
  | Maximum stacksize for task 24: unlimited
  | Maximum stacksize for task 25: unlimited
  | Maximum stacksize for task 26: unlimited
  | Maximum stacksize for task 27: unlimited
  | Maximum stacksize for task 28: unlimited
  | Maximum stacksize for task 29: unlimited
  | Maximum stacksize for task 30: unlimited
  | Maximum stacksize for task 31: unlimited
  | Maximum stacksize for task 32: unlimited
  | Maximum stacksize for task 33: unlimited
  | Maximum stacksize for task 34: unlimited
  | Maximum stacksize for task 35: unlimited
  | Maximum stacksize for task 36: unlimited
  | Maximum stacksize for task 37: unlimited
  | Maximum stacksize for task 38: unlimited
  | Maximum stacksize for task 39: unlimited
  | Maximum stacksize for task 40: unlimited
  | Maximum stacksize for task 41: unlimited
  | Maximum stacksize for task 42: unlimited
  | Maximum stacksize for task 43: unlimited
  | Maximum stacksize for task 44: unlimited
  | Maximum stacksize for task 45: unlimited
  | Maximum stacksize for task 46: unlimited
  | Maximum stacksize for task 47: unlimited
  | Maximum stacksize for task 48: unlimited
  | Maximum stacksize for task 49: unlimited
  | Maximum stacksize for task 50: unlimited
  | Maximum stacksize for task 51: unlimited
  | Maximum stacksize for task 52: unlimited
  | Maximum stacksize for task 53: unlimited
  | Maximum stacksize for task 54: unlimited
  | Maximum stacksize for task 55: unlimited
  | Maximum stacksize for task 56: unlimited
  | Maximum stacksize for task 57: unlimited
  | Maximum stacksize for task 58: unlimited
  | Maximum stacksize for task 59: unlimited
  | Maximum stacksize for task 60: unlimited
  | Maximum stacksize for task 61: unlimited
  | Maximum stacksize for task 62: unlimited
  | Maximum stacksize for task 63: unlimited
  | Current stacksize for task 0: unlimited
  | Current stacksize for task 1: unlimited
  | Current stacksize for task 2: unlimited
  | Current stacksize for task 3: unlimited
  | Current stacksize for task 4: unlimited
  | Current stacksize for task 5: unlimited
  | Current stacksize for task 6: unlimited
  | Current stacksize for task 7: unlimited
  | Current stacksize for task 8: unlimited
  | Current stacksize for task 9: unlimited
  | Current stacksize for task 10: unlimited
  | Current stacksize for task 11: unlimited
  | Current stacksize for task 12: unlimited
  | Current stacksize for task 13: unlimited
  | Current stacksize for task 14: unlimited
  | Current stacksize for task 15: unlimited
  | Current stacksize for task 16: unlimited
  | Current stacksize for task 17: unlimited
  | Current stacksize for task 18: unlimited
  | Current stacksize for task 19: unlimited
  | Current stacksize for task 20: unlimited
  | Current stacksize for task 21: unlimited
  | Current stacksize for task 22: unlimited
  | Current stacksize for task 23: unlimited
  | Current stacksize for task 24: unlimited
  | Current stacksize for task 25: unlimited
  | Current stacksize for task 26: unlimited
  | Current stacksize for task 27: unlimited
  | Current stacksize for task 28: unlimited
  | Current stacksize for task 29: unlimited
  | Current stacksize for task 30: unlimited
  | Current stacksize for task 31: unlimited
  | Current stacksize for task 32: unlimited
  | Current stacksize for task 33: unlimited
  | Current stacksize for task 34: unlimited
  | Current stacksize for task 35: unlimited
  | Current stacksize for task 36: unlimited
  | Current stacksize for task 37: unlimited
  | Current stacksize for task 38: unlimited
  | Current stacksize for task 39: unlimited
  | Current stacksize for task 40: unlimited
  | Current stacksize for task 41: unlimited
  | Current stacksize for task 42: unlimited
  | Current stacksize for task 43: unlimited
  | Current stacksize for task 44: unlimited
  | Current stacksize for task 45: unlimited
  | Current stacksize for task 46: unlimited
  | Current stacksize for task 47: unlimited
  | Current stacksize for task 48: unlimited
  | Current stacksize for task 49: unlimited
  | Current stacksize for task 50: unlimited
  | Current stacksize for task 51: unlimited
  | Current stacksize for task 52: unlimited
  | Current stacksize for task 53: unlimited
  | Current stacksize for task 54: unlimited
  | Current stacksize for task 55: unlimited
  | Current stacksize for task 56: unlimited
  | Current stacksize for task 57: unlimited
  | Current stacksize for task 58: unlimited
  | Current stacksize for task 59: unlimited
  | Current stacksize for task 60: unlimited
  | Current stacksize for task 61: unlimited
  | Current stacksize for task 62: unlimited
  | Current stacksize for task 63: unlimited

  Consistency checks for the contents of control.in are next.

  HSE06 screening parameters: omega_HF  =      0.11000000 bohr^-1, and
                              omega_PBE =      0.11000000 bohr^-1.
  MPI_IN_PLACE appears to work with this MPI implementation.
  | Keeping use_mpi_in_place .true. (see manual).
  Species Cu: Using default value for prodbas_acc =   1.000000E-04.
  Species Cu: Using default value max_l_prodbas =    20.
  Target number of points in a grid batch is not set. Defaulting to  100
  Method for grid partitioning is not set. Defaulting to parallel hash+maxmin partitioning.
  Batch size limit is not set. Defaulting to    200
  By default, will store active basis functions for each batch.
  If in need of memory, prune_basis_once .false. can be used to disable this option.
  communication_type for Hartree potential was not specified.
  Defaulting to calc_hartree .
  Defaulting to Pulay charge density mixer.
  Pulay mixer: Number of relevant iterations not set.
  Defaulting to    8 iterations.
  Pulay mixer: Number of initial linear mixing iterations not set.
  Defaulting to    0 iterations.
  Work space size for distributed Hartree potential not set.
  Defaulting to   0.200000E+03 MB.
  Mixing parameter for charge density mixing has not been set.
  Using default: charge_mix_param =     0.0500.
  The mixing parameter will be adjusted in iteration number     2 of the first full s.c.f. cycle only.
  Algorithm-dependent basis array size parameters:
  | n_max_pulay                         :        8
  Presetting      1001 iterations before the initial mixing cycle
  is restarted anyway using the sc_init_iter criterion / keyword.
  Presetting a factor      1.000 between actual scf density residual
  and density convergence criterion sc_accuracy_rho below which sc_init_iter
  takes no effect.
  Geometry relaxation not requested: no relaxation will be performed.
  Forces evaluation will include force correction term due to incomplete self-consistency (default).
  Handling of forces: Unphysical translation and rotation will be removed from forces.
  No accuracy limit for integral partition fn. given. Defaulting to  0.1000E-14.
  No threshold value for u(r) in integrations given. Defaulting to  0.1000E-05.
  No accuracy for occupation numbers given. Defaulting to  0.1000E-12.
  No threshold value for occupation numbers given. Defaulting to  0.0000E+00.
  No accuracy for fermi level given. Defaulting to  0.1000E-19.
  Maximum # of iterations to find E_F not set. Defaulting to  200.
  Preferred method for the eigenvalue solver ('KS_method') not specified in 'control.in'.
  Defaulting to serial version, LAPACK (via ELSI), since more k-points than CPUs available.
  Will not use alltoall communication since running on < 1024 CPUs.
  Threshold for basis singularities not set.
  Default threshold for basis singularities:  0.1000E-04
  partition_type (choice of integration weights) for integrals was not specified.
  | Using a version of the partition function of Stratmann and coworkers ('stratmann_sparse').
  | At each grid point, the set of atoms used to build the partition table is smoothly restricted to
  | only those atoms whose free-atom density would be non-zero at that grid point.
  Partitioning for Hartree potential was not defined. Using partition_type for integrals.
  | Adjusted default value of keyword multip_moments_threshold to:       0.10000000E-11
  | This value may affect high angular momentum components of the Hartree potential in periodic systems.
  Threshold for auxiliary basis singularities not set.
  Default threshold for auxiliary basis singularities:  0.1000E-04
  No q(lm)/r^(l+1) cutoff set for long-range Hartree potential.
  | Using default value of  0.100000E-09 .
  | Verify using the multipole_threshold keyword.
  Defaulting to new monopole extrapolation.
  Density update method: automatic selection selected.
  Using density matrix based charge density update.
  Using density matrix based charge density update.
  Using packed matrix style: index .
 * NOTE: You are attempting to run a periodic structure with an exchange treatment
 * which requires a two-electron Coulomb operator (Hartree-Fock or a hybrid functional).
 * The present implementation is reliable to our knowledge, but some things
 * (like band structure output, or perhaps the auxilary basis set for small
 * orbital basis sets - see the "for_aux" keyword) require extra care.
 * Please let us know if you encounter any trouble.
  Coulomb operator: Defaulting to screening threshold for four-center integrals:   0.100000E-06
  Coulomb operator: Defaulting to screening threshold for Coulomb matrix:   0.100000E-09
  Fock matrix calculation: Setting the screening threshold for overlap matrix to coul_mat_threshold:   0.100000E-09
  Coulomb operator: Defaulting to logarithmic spherical Bessel transform integrals (use_logsbt .true.).
  HSE with LVL_fast: Also defaulting to logarithmic spherical Bessel transform integrals.
  Defaulting to use time-reversal symmetry for k-point grid.
  LVL not implemented with density matrix yet
  -> switching to transformed overlap
  LVL probably works better with logsbt
  Default to 1D ("use_logsbt") integrations for auxiliary 2-center integrals.
  Default onset of logarithmic r-grid for SBT is -38.000000000000
  Default onset of logarithmic k-grid for SBT is -25.000000000000
  Default range of logarithmic r- and k-grid for SBT is  45.000000000000
  Default number of logarithmic r- and k-grid for SBT is   4096
  * Use logSBT for radial HSE integration, too
  Set 'collect_eigenvectors' to be '.true.' for all serial calculations. This is mandatory.
  Set 'collect_eigenvectors' to be '.true.' for KS_method lapack_fast and serial.

  Consistency checks for the contents of geometry.in are next.


  Range separation radius for Ewald summation (hartree_convergence_parameter):      3.16228174 bohr.
  Number of empty states per atom not set in control.in - providing a guess from actual geometry.
  | Total number of empty states used during s.c.f. cycle:        6
  If you use a very high smearing, use empty_states (per atom!) in control.in to increase this value.

  Structure-dependent array size parameters: 
  | Maximum number of distinct radial functions  :       12
  | Maximum number of basis functions            :       40
  | Number of Kohn-Sham states (occupied + empty):       21
------------------------------------------------------------
  Setting Coulomb cut-width to  1.091868692359 * rcut.
  Setting Coulomb cutting radius rcut to 30.513071821762 A.
  After read_input_data [GB]:    504.95

  Performing system and environment tests:
  | Environment variable OMP_NUM_THREADS correctly set to 1.
  | Checking for ScaLAPACK...
  | Testing pdtran()...
  | All pdtran() tests passed.
  After prepare_system [GB]:    504.85

------------------------------------------------------------
          Preparing all fixed parts of the calculation.
------------------------------------------------------------
  Determining machine precision:
     2.2250738585072014E-308
  Setting up grids for atomic and cluster calculations.

  Creating wave function, potential, and density for free atoms.
  Runtime choices for atomic solver:
  | atomic solver xc        : PBE
  | compute density gradient: 1
  | compute kinetic density : F

  Species: Cu

  List of occupied orbitals and eigenvalues:
    n    l              occ      energy [Ha]    energy [eV]
    1    0           2.0000      -328.699981     -8944.3816
    2    0           2.0000       -39.104975     -1064.1005
    3    0           2.0000        -4.213299      -114.6497
    4    0           1.0000        -0.167360        -4.5541
    2    1           6.0000       -33.744054      -918.2224
    3    1           6.0000        -2.648604       -72.0722
    3    2          10.0000        -0.183215        -4.9855


  Adding cutoff potential to free-atom effective potential.
  Creating fixed part of basis set: Ionic, confined, hydrogenic.

  Cu                   ion:

  List of free ionic orbitals and eigenvalues:
    n    l      energy [Ha]    energy [eV]
    1    0      -329.653429     -8970.3262
    2    0       -40.053714     -1089.9170
    3    0        -5.155617      -140.2915
    2    1       -34.692083      -944.0196
    3    1        -3.586956       -97.6060
    3    2        -1.088907       -29.6307


  List of ionic basis orbitals and eigenvalues:
    n    l      energy [Ha]    energy [eV]    outer radius [A]
    4    1        -0.563838       -15.3428       5.409666


  Cu                   hydrogenic:

  List of hydrogenic basis orbitals: 
    n    l      effective z      eigenvalue [eV]  inner max. [A]     outer max. [A]     outer radius [A]   
    4    3         7.400000       -46.5653           1.145240           1.145240           4.905649
    3    0         2.600000        -9.8948           0.150509           2.597861           5.476205
    3    2         5.000000       -37.7934           0.953362           0.953362           4.728994
    5    4        10.400000       -58.8635           1.278438           1.278438           4.905649

  Creating atomic-like basis functions for current effective potential.

  Species Cu                  :

  List of atomic basis orbitals and eigenvalues:
    n    l      energy [Ha]    energy [eV]    outer radius [A]
    1    0      -328.699981     -8944.3816       0.367398
    2    0       -39.104975     -1064.1005       1.064244
    3    0        -4.213299      -114.6497       3.082799
    4    0        -0.167360        -4.5541       5.409666
    2    1       -33.744054      -918.2224       1.117579
    3    1        -2.648604       -72.0722       3.748807
    3    2        -0.183215        -4.9855       5.343935

  Assembling full basis from fixed parts.
  | Species Cu :   atomic orbital   1 s accepted.
  | Species Cu :   atomic orbital   2 s accepted.
  | Species Cu :   atomic orbital   3 s accepted.
  | Species Cu :   atomic orbital   4 s accepted.
  | Species Cu :    hydro orbital   3 s accepted.
  | Species Cu :   atomic orbital   2 p accepted.
  | Species Cu :   atomic orbital   3 p accepted.
  | Species Cu :    ionic orbital   4 p accepted.
  | Species Cu :    hydro orbital   3 d accepted.
  | Species Cu :   atomic orbital   3 d accepted.
  | Species Cu :    hydro orbital   4 f accepted.
  | Species Cu :    hydro orbital   5 g accepted.

  Basis size parameters after reduction:
  | Total number of radial functions:       12
  | Total number of basis functions :       40

  Per-task memory consumption for arrays in subroutine allocate_ext:
  |           4.320820MB.
  Testing on-site integration grid accuracy.
  |  Species  Function  <phi|h_atom|phi> (log., in eV)  <phi|h_atom|phi> (rad., in eV)
           1        1              -8944.3815755902              -8944.3812187862
           1        2              -1064.1005186932              -1064.1005135153
           1        3               -114.6497097986               -114.6497088853
           1        4                 -4.5578125839                 -4.5578099515
           1        5                  3.9070911993                  3.9071644676
           1        6               -918.2224148223               -918.2224143576
           1        7                -72.0721899544                -72.0721894146
           1        8                  1.4036164738                  1.4036158824
           1        9                  9.4245065340                  9.4245068801
           1       10                 10.2125114592                 10.2125116030
           1       11                 29.6122132029                 29.6122135861
           1       12                 46.2175278129                 46.2175281957

  Preparing densities etc. for the partition functions (integrals / Hartree potential).
 Frequency grid relative error: 0.12425793727288692E-009                          
 Will use parallel mode: k_points  

  Preparations completed.
  max(cpu_time)          :      0.275 s.
  Wall clock time (cpu1) :      0.274 s.
------------------------------------------------------------
  After prepare_scf [GB]:    503.90

  Initializing index lists of integration centers etc. from given atomic structure:
  Mapping all atomic coordinates to central unit cell.

  Initializing the k-points
  Using symmetry for reducing the k-points
  | k-points reduced from:    13824 to     6916
  | Number of k-points                             :      6916
  | Consuming    1493856 KiB for k_phase_exx.
  The eigenvectors in the calculations are COMPLEX.
  | K-points in task   0:       108
  | K-points in task   1:       109
  | K-points in task   2:       109
  | K-points in task   3:       109
  | K-points in task   4:       109
  | K-points in task   5:       108
  | K-points in task   6:       108
  | K-points in task   7:       108
  | K-points in task   8:       108
  | K-points in task   9:       108
  | K-points in task  10:       108
  | K-points in task  11:       108
  | K-points in task  12:       108
  | K-points in task  13:       108
  | K-points in task  14:       108
  | K-points in task  15:       108
  | K-points in task  16:       108
  | K-points in task  17:       108
  | K-points in task  18:       108
  | K-points in task  19:       108
  | K-points in task  20:       108
  | K-points in task  21:       108
  | K-points in task  22:       108
  | K-points in task  23:       108
  | K-points in task  24:       108
  | K-points in task  25:       108
  | K-points in task  26:       108
  | K-points in task  27:       108
  | K-points in task  28:       108
  | K-points in task  29:       108
  | K-points in task  30:       108
  | K-points in task  31:       108
  | K-points in task  32:       108
  | K-points in task  33:       108
  | K-points in task  34:       108
  | K-points in task  35:       108
  | K-points in task  36:       108
  | K-points in task  37:       108
  | K-points in task  38:       108
  | K-points in task  39:       108
  | K-points in task  40:       108
  | K-points in task  41:       108
  | K-points in task  42:       108
  | K-points in task  43:       108
  | K-points in task  44:       108
  | K-points in task  45:       108
  | K-points in task  46:       108
  | K-points in task  47:       108
  | K-points in task  48:       108
  | K-points in task  49:       108
  | K-points in task  50:       108
  | K-points in task  51:       108
  | K-points in task  52:       108
  | K-points in task  53:       108
  | K-points in task  54:       108
  | K-points in task  55:       108
  | K-points in task  56:       108
  | K-points in task  57:       108
  | K-points in task  58:       108
  | K-points in task  59:       108
  | K-points in task  60:       108
  | K-points in task  61:       108
  | K-points in task  62:       108
  | K-points in task  63:       108
  | Number of basis functions in the Hamiltonian integrals :      4022
  | Number of basis functions in a single unit cell        :        40
  | Number of centers in hartree potential         :       959
  | Number of centers in hartree multipole         :       767
  | Number of centers in electron density summation:       531
  | Number of centers in basis integrals           :       603
  | Number of centers in integrals                 :       195
  | Number of centers in hamiltonian               :       531
  | Consuming      57489 KiB for k_phase.
  | Number of super-cells (origin) [n_cells]                     :        4913
  | Number of super-cells (after PM_index) [n_cells]             :         532
  | Number of super-cells in hamiltonian [n_cells_in_hamiltonian]:         532
  | Size of matrix packed + index [n_hamiltonian_matrix_size] :      255919
  After initialize_bc_dependent_lists [GB]:    404.22

------------------------------------------------------------
          Begin self-consistency loop: Initialization.

          Date     :  20240406, Time     :  000409.549
------------------------------------------------------------
  Available memory per node after initialize_hartree_non_periodic_ewald [GB]:    404.22
  | Estimated reciprocal-space cutoff momentum G_max:         3.13745076 bohr^-1 .
  | Reciprocal lattice points for long-range Hartree potential:      50
  Available memory per node after initialize_recip_hartree_potential [GB]:    404.22
  Available memory per node after initialize_scalapack [GB]:    404.22
  Available memory per node after aims_elsi_init_scf [GB]:    404.22
  Available memory per node after initialize_fixed_grids [GB]:    404.22
  Partitioning the integration grid into batches with parallel hashing+maxmin method.
  | Number of batches:      313
  | Maximal batch size:     107
  | Minimal batch size:      50
  | Average batch size:      72.914
  | Standard deviation of batch sizes:      19.750

  Integration load balanced across    64 MPI tasks.
  Work distribution over tasks is as follows:
  Task     0 has        402 integration points.
  Task     1 has        357 integration points.
  Task     2 has        380 integration points.
  Task     3 has        389 integration points.
  Task     4 has        386 integration points.
  Task     5 has        390 integration points.
  Task     6 has        387 integration points.
  Task     7 has        385 integration points.
  Task     8 has        345 integration points.
  Task     9 has        317 integration points.
  Task    10 has        350 integration points.
  Task    11 has        394 integration points.
  Task    12 has        342 integration points.
  Task    13 has        347 integration points.
  Task    14 has        338 integration points.
  Task    15 has        347 integration points.
  Task    16 has        321 integration points.
  Task    17 has        377 integration points.
  Task    18 has        352 integration points.
  Task    19 has        324 integration points.
  Task    20 has        344 integration points.
  Task    21 has        348 integration points.
  Task    22 has        347 integration points.
  Task    23 has        317 integration points.
  Task    24 has        321 integration points.
  Task    25 has        397 integration points.
  Task    26 has        314 integration points.
  Task    27 has        335 integration points.
  Task    28 has        400 integration points.
  Task    29 has        378 integration points.
  Task    30 has        388 integration points.
  Task    31 has        346 integration points.
  Task    32 has        403 integration points.
  Task    33 has        396 integration points.
  Task    34 has        390 integration points.
  Task    35 has        339 integration points.
  Task    36 has        339 integration points.
  Task    37 has        348 integration points.
  Task    38 has        340 integration points.
  Task    39 has        342 integration points.
  Task    40 has        350 integration points.
  Task    41 has        341 integration points.
  Task    42 has        341 integration points.
  Task    43 has        324 integration points.
  Task    44 has        380 integration points.
  Task    45 has        342 integration points.
  Task    46 has        341 integration points.
  Task    47 has        327 integration points.
  Task    48 has        345 integration points.
  Task    49 has        390 integration points.
  Task    50 has        344 integration points.
  Task    51 has        347 integration points.
  Task    52 has        393 integration points.
  Task    53 has        342 integration points.
  Task    54 has        342 integration points.
  Task    55 has        344 integration points.
  Task    56 has        344 integration points.
  Task    57 has        343 integration points.
  Task    58 has        385 integration points.
  Task    59 has        347 integration points.
  Task    60 has        334 integration points.
  Task    61 has        388 integration points.
  Task    62 has        398 integration points.
  Task    63 has        328 integration points.
  Available memory per node after partition_grid [GB]:    404.22
  Initializing partition tables, free-atom densities, potentials, etc. across the integration grid (initialize_grid_storage).
  | initialize_grid_storage: Actual outermost partition radius vs. multipole_radius_free
  | (-- VB: in principle, multipole_radius_free should be larger, hence this output)
  | Species        1: Confinement radius =              6.000000000000000 AA, multipole_radius_free =              6.038841212042898 AA.
  | Species        1: outer_partition_radius set to              6.038841212042898 AA .
  | The sparse table of interatomic distances needs       3644.75 kbyte instead of      2908.87 kbyte of memory.
  | Using the partition_type stratmann_smoother will reduce your memory usage.
  | Net number of integration points:    22822
  | of which are non-zero points    :    16106
  | Numerical average free-atom electrostatic potential    :    -22.64831366 eV
  Available memory per node after initialize_grid_storage_p1 [GB]:    404.22
  Renormalizing the initial density to the exact electron count on the 3D integration grid.
  | Initial density: Formal number of electrons (from input files) :      29.0000000000
  | Integrated number of electrons on 3D grid     :      29.0001041145
  | Charge integration error                      :       0.0001041145
  | Normalization factor for density and gradient :       0.9999964099
  Renormalizing the free-atom superposition density to the exact electron count on the 3D integration grid.
  | Formal number of electrons (from input files) :      29.0000000000
  | Integrated number of electrons on 3D grid     :      29.0001041145
  | Charge integration error                      :       0.0001041145
  | Normalization factor for density and gradient :       0.9999964099
  Obtaining max. number of non-zero basis functions in each batch (get_n_compute_maxes).
  | Maximal number of non-zero basis functions:     2022 in task     0
  | Maximal number of non-zero basis functions:     1959 in task     1
  | Maximal number of non-zero basis functions:     1985 in task     2
  | Maximal number of non-zero basis functions:     1950 in task     3
  | Maximal number of non-zero basis functions:     1987 in task     4
  | Maximal number of non-zero basis functions:     1978 in task     5
  | Maximal number of non-zero basis functions:     1985 in task     6
  | Maximal number of non-zero basis functions:     1971 in task     7
  | Maximal number of non-zero basis functions:     2022 in task     8
  | Maximal number of non-zero basis functions:     2066 in task     9
  | Maximal number of non-zero basis functions:     2022 in task    10
  | Maximal number of non-zero basis functions:     2049 in task    11
  | Maximal number of non-zero basis functions:     1938 in task    12
  | Maximal number of non-zero basis functions:     1910 in task    13
  | Maximal number of non-zero basis functions:     1972 in task    14
  | Maximal number of non-zero basis functions:     1968 in task    15
  | Maximal number of non-zero basis functions:     1977 in task    16
  | Maximal number of non-zero basis functions:     1968 in task    17
  | Maximal number of non-zero basis functions:     1988 in task    18
  | Maximal number of non-zero basis functions:     1968 in task    19
  | Maximal number of non-zero basis functions:     1917 in task    20
  | Maximal number of non-zero basis functions:     1916 in task    21
  | Maximal number of non-zero basis functions:     1931 in task    22
  | Maximal number of non-zero basis functions:     1957 in task    23
  | Maximal number of non-zero basis functions:     1935 in task    24
  | Maximal number of non-zero basis functions:     2049 in task    25
  | Maximal number of non-zero basis functions:     1925 in task    26
  | Maximal number of non-zero basis functions:     2006 in task    27
  | Maximal number of non-zero basis functions:     1980 in task    28
  | Maximal number of non-zero basis functions:     1976 in task    29
  | Maximal number of non-zero basis functions:     2065 in task    30
  | Maximal number of non-zero basis functions:     1945 in task    31
  | Maximal number of non-zero basis functions:     1959 in task    32
  | Maximal number of non-zero basis functions:     2049 in task    33
  | Maximal number of non-zero basis functions:     2066 in task    34
  | Maximal number of non-zero basis functions:     2058 in task    35
  | Maximal number of non-zero basis functions:     1935 in task    36
  | Maximal number of non-zero basis functions:     1959 in task    37
  | Maximal number of non-zero basis functions:     2019 in task    38
  | Maximal number of non-zero basis functions:     1926 in task    39
  | Maximal number of non-zero basis functions:     1990 in task    40
  | Maximal number of non-zero basis functions:     1971 in task    41
  | Maximal number of non-zero basis functions:     1968 in task    42
  | Maximal number of non-zero basis functions:     1914 in task    43
  | Maximal number of non-zero basis functions:     1954 in task    44
  | Maximal number of non-zero basis functions:     1965 in task    45
  | Maximal number of non-zero basis functions:     1972 in task    46
  | Maximal number of non-zero basis functions:     1907 in task    47
  | Maximal number of non-zero basis functions:     1956 in task    48
  | Maximal number of non-zero basis functions:     2066 in task    49
  | Maximal number of non-zero basis functions:     1954 in task    50
  | Maximal number of non-zero basis functions:     1955 in task    51
  | Maximal number of non-zero basis functions:     1988 in task    52
  | Maximal number of non-zero basis functions:     1966 in task    53
  | Maximal number of non-zero basis functions:     1970 in task    54
  | Maximal number of non-zero basis functions:     2017 in task    55
  | Maximal number of non-zero basis functions:     1950 in task    56
  | Maximal number of non-zero basis functions:     2003 in task    57
  | Maximal number of non-zero basis functions:     1964 in task    58
  | Maximal number of non-zero basis functions:     2021 in task    59
  | Maximal number of non-zero basis functions:     1980 in task    60
  | Maximal number of non-zero basis functions:     1930 in task    61
  | Maximal number of non-zero basis functions:     2022 in task    62
  | Maximal number of non-zero basis functions:     1968 in task    63
  Available memory per node after get_n_compute_maxes_p1 [GB]:    404.18
  Allocating        1.384 MB for KS_eigenvector_complex
  Available memory per node after allocate_matrices [GB]:    404.10
  Available memory per node after init_comm_sparse_local_matrix_scalapack [GB]:    404.10
  Integrating Hamiltonian matrix: batch-based integration.
  Time summed over all CPUs for integration: real work       23.311 s, elapsed       26.031 s
  Available memory per node after integrate hamiltonian matrix [GB]:    403.02
  Integrating overlap matrix.
  Time summed over all CPUs for integration: real work       18.064 s, elapsed       20.363 s
  Available memory per node after integrate ovlp matrix [GB]:    401.45
  Available memory per node after ASI_callbacks invoke [GB]:    401.68
  Available memory per node after save_overlap_scalapack [GB]:    401.68

  Updating Kohn-Sham eigenvalues and eigenvectors using ELSI and the (modified) LAPACK eigensolver.
  Singularity check in k-point 64, task 0 (analysis for other k-points/tasks may follow below):
  Overlap matrix is not singular
  | Lowest and highest eigenvalues :  0.2362E-02,  0.5251E+01
  Finished singularity check of overlap matrix
  | Time :     0.006 s
  Starting LAPACK eigensolver
  Finished Cholesky decomposition
  | Time :     0.006 s
  Finished transformation to standard eigenproblem
  | Time :     0.000 s
  Finished solving standard eigenproblem
  | Time :     0.001 s
  Finished back-transformation of eigenvectors
  | Time :     0.000 s

  Obtaining occupation numbers and electronic chemical potential using ELSI.
  | Note that, for insulating systems, the printed 'chemical potential' value is not uniquely defined.
  | It can be anywhere in the energy gap, as long as it correctly separates occupied and unoccupied states.
  | In systems with a gap, the physically relevant chemical potential is the VBM or HOMO.

  | Chemical potential (Fermi level):    -4.09923017 eV
  Available memory per node after advance_KS_solution [GB]:    401.51
  Writing Kohn-Sham eigenvalues.
  K-point:       1 at    0.000000    0.000000    0.000000 (in units of recip. lattice)

  State    Occupation    Eigenvalue [Ha]    Eigenvalue [eV]
      1       2.00000        -328.730571        -8945.21395
      2       2.00000         -39.136386        -1064.95525
      3       2.00000         -33.775329         -919.07346
      4       2.00000         -33.775329         -919.07346
      5       2.00000         -33.775329         -919.07346
      6       2.00000          -4.251525         -115.68989
      7       2.00000          -2.685450          -73.07482
      8       2.00000          -2.685450          -73.07482
      9       2.00000          -2.685450          -73.07482
     10       2.00000          -0.552257          -15.02768
     11       2.00000          -0.246980           -6.72067
     12       2.00000          -0.246980           -6.72067
     13       2.00000          -0.246980           -6.72067
     14       2.00000          -0.210590           -5.73046
     15       2.00000          -0.210590           -5.73046
     16       0.00000           0.664550           18.08332
     17       0.00000           0.761185           20.71288
     18       0.00000           0.761185           20.71288
     19       0.00000           0.761185           20.71288
     20       0.00000           0.920576           25.05014
     21       0.00000           0.920576           25.05014

  What follows are estimated values for band gap, HOMO, LUMO, etc.
  | They are estimated on a discrete k-point grid and not necessarily exact.
  | For converged numbers, create a DOS and/or band structure plot on a denser k-grid.

  Highest occupied state (VBM) at     -4.10363518 eV (relative to internal zero)
  | Occupation number:      1.09915400
  | K-point:    2500 at    0.250000    0.083333    0.750000 (in units of recip. lattice)

  Lowest unoccupied state (CBM) at    -4.09398369 eV (relative to internal zero)
  | Occupation number:      0.88203292
  | K-point:    1407 at    0.125000    0.583333    0.000000 (in units of recip. lattice)

  ESTIMATED overall HOMO-LUMO gap:      0.00965149 eV between HOMO at k-point 2500 and LUMO at k-point 1407
  | This appears to be an indirect band gap.
  | Smallest direct gap :      0.85450566 eV for k_point 5254 at    0.500000    0.500000    0.000000 (in units of recip. lattice)
  However, this system has fractional occupation numbers. Since we use a finite k-point grid,
  this material is metallic within the approximate finite broadening function (occupation_type)
  applied to determine the occupation numbers.
  Calculating total energy contributions from superposition of free atom densities.

  Total energy components:
  | Sum of eigenvalues            :        -965.84365907 Ha      -26281.94317375 eV
  | XC energy correction          :         -67.90520711 Ha       -1847.79470031 eV
  | XC potential correction       :          88.24374033 Ha        2401.23434793 eV
  | Free-atom electrostatic energy:        -717.29210574 Ha      -19518.51128815 eV
  | Hartree energy correction     :          -0.00000000 Ha          -0.00000000 eV
  | vdW energy correction         :           0.00000000 Ha           0.00000000 eV
  | Entropy correction            :          -0.00001443 Ha          -0.00039275 eV
  | ---------------------------
  | Total energy                  :       -1662.79723159 Ha      -45247.01481427 eV
  | Total energy, T -> 0          :       -1662.79724602 Ha      -45247.01520702 eV  <-- do not rely on this value for anything but (periodic) metals
  | Electronic free energy        :       -1662.79726045 Ha      -45247.01559977 eV

  Derived energy quantities:
  | Kinetic energy                :        1687.77382987 Ha       45926.66263356 eV
  | Electrostatic energy          :       -3282.66585434 Ha      -89325.88274753 eV
  | Energy correction for multipole
  | error in Hartree potential    :           0.00000000 Ha           0.00000000 eV
  | Sum of eigenvalues per atom                           :      -26281.94317375 eV
  | Total energy (T->0) per atom                          :      -45247.01520702 eV  <-- do not rely on this value for anything but (periodic) metals
  | Electronic free energy per atom                       :      -45247.01559977 eV
  
  --------------------------------------------
  Constructing auxiliary basis (full product) ...
  
  Product basis:
  | charge radius: extent of product basis function
  | field radius: extent of its Coulomb potential
  | Species   l  charge radius    field radius
  |    Cu     0     2.355819 A      2.355819 A
  |    Cu     0     3.237295 A      3.237295 A
  |    Cu     0     4.133968 A      4.133968 A
  |    Cu     0     4.846043 A      4.846043 A
  |    Cu     0     5.088903 A      5.088903 A
  |    Cu     0     5.214860 A      5.214860 A
  |    Cu     0     5.343935 A     12.422212 A
  |    Cu     0     5.409666 A     19.767429 A
  |    Cu     0     5.343935 A     21.798376 A
  |    Cu     0     5.409666 A     24.037986 A
  |    Cu     0     5.476205 A     24.935944 A
  |    Cu     0     5.476205 A     25.553141 A
  |    Cu     0     5.476205 A     25.553141 A
  |    Cu     1     2.270984 A      2.270984 A
  |    Cu     1     3.526525 A      3.526525 A
  |    Cu     1     4.503309 A      4.503309 A
  |    Cu     1     4.905649 A      4.905649 A
  |    Cu     1     5.088903 A      5.088903 A
  |    Cu     1     5.214860 A      5.214860 A
  |    Cu     1     5.279003 A     14.741048 A
  |    Cu     1     5.343935 A     20.758079 A
  |    Cu     1     5.409666 A     23.172364 A
  |    Cu     1     5.409666 A     24.333654 A
  |    Cu     1     5.476205 A     25.242656 A
  |    Cu     1     5.476205 A     25.553141 A
  |    Cu     2     2.629814 A      2.629814 A
  |    Cu     2     3.936680 A      3.936680 A
  |    Cu     2     4.965989 A      4.965989 A
  |    Cu     2     5.088903 A      5.088903 A
  |    Cu     2     5.214860 A      5.214860 A
  |    Cu     2     5.279003 A      5.821379 A
  |    Cu     2     5.279003 A     12.729679 A
  |    Cu     2     5.343935 A     20.505857 A
  |    Cu     2     5.409666 A     22.890807 A
  |    Cu     2     5.476205 A     24.333654 A
  |    Cu     2     5.476205 A     25.242656 A
  |    Cu     2     5.476205 A     25.867445 A
  |    Cu     3     4.394539 A      4.394539 A
  |    Cu     3     4.965989 A      4.965989 A
  |    Cu     3     5.088903 A      5.088903 A
  |    Cu     3     5.214860 A      5.214860 A
  |    Cu     3     5.343935 A      9.377485 A
  |    Cu     3     5.409666 A     16.058059 A
  |    Cu     3     5.409666 A     22.066496 A
  |    Cu     3     5.476205 A     23.745911 A
  |    Cu     3     5.476205 A     24.935944 A
  |    Cu     3     5.476205 A     25.553141 A
  |    Cu     4     4.288395 A      4.288395 A
  |    Cu     4     4.965989 A      4.965989 A
  |    Cu     4     5.214860 A      5.214860 A
  |    Cu     4     5.343935 A      5.821379 A
  |    Cu     4     5.343935 A      7.254246 A
  |    Cu     4     5.343935 A     15.105908 A
  |    Cu     4     5.409666 A     20.758079 A
  |    Cu     4     5.409666 A     23.172364 A
  |    Cu     4     5.476205 A     24.333654 A
  |    Cu     4     5.476205 A     25.242656 A
  |    Cu     5     4.846043 A      4.846043 A
  |    Cu     5     4.965989 A      7.343473 A
  |    Cu     5     5.088903 A     14.922363 A
  |    Cu     5     5.088903 A     21.013404 A
  |    Cu     5     5.151497 A     22.890807 A
  |    Cu     5     5.151497 A     24.037986 A
  |    Cu     6     5.088903 A     11.127965 A
  |    Cu     6     5.088903 A     17.925705 A
  |    Cu     6     5.088903 A     21.533513 A
  |    Cu     6     5.088903 A     23.457385 A
  |    Cu     7     4.905649 A     13.205206 A
  |    Cu     7     4.787161 A     21.798376 A
  |    Cu     8     4.905649 A     20.758079 A

  | Shrink_full_auxil_basis : there are       70  radial auxiliary wave functions
                            accepted and      92 rejected.
  | Shrink_full_auxil_basis : there are totally              230454 partial auxiliary wave functions.
  prodbas_tasks_distribution_pbc not up to date - distributing tasks.

  | Number of product basis functions per thread :  3601
  Parallel distribution of product basis not up to date - distributing tasks.

  | Number of product basis functions per thread :     7
  | Minimal requirement for computer memory :           0.004 Gbs
  Minimal free memory per node on init_fm entry [GB]:    401.42
  -----------------------------------------
  --- Initializing Fock matrix calculations
  -----------------------------------------
  screening_threshold (crit_val) =  0.000000100000
  coul_mat_threshold =  0.000000000100
  No atoms are split internally
  Number of super-cells in X Y Z:       8       8       8
  Number of atoms pairs total:          531
  Atom pair distribution:
  Cell:       -5       0       2 atom pairs:        1
  Cell:       -5       0       3 atom pairs:        1
  Cell:       -5       1       1 atom pairs:        1
  Cell:       -5       1       2 atom pairs:        1
  Cell:       -5       1       3 atom pairs:        1
  Cell:       -5       2       0 atom pairs:        1
  Cell:       -5       2       1 atom pairs:        1
  Cell:       -5       2       2 atom pairs:        1
  Cell:       -5       2       3 atom pairs:        1
  Cell:       -5       3       0 atom pairs:        1
  Cell:       -5       3       1 atom pairs:        1
  Cell:       -5       3       2 atom pairs:        1
  Cell:       -4      -2       3 atom pairs:        1
  Cell:       -4      -1       1 atom pairs:        1
  Cell:       -4      -1       2 atom pairs:        1
  Cell:       -4      -1       3 atom pairs:        1
  Cell:       -4      -1       4 atom pairs:        1
  Cell:       -4       0       0 atom pairs:        1
  Cell:       -4       0       1 atom pairs:        1
  Cell:       -4       0       2 atom pairs:        1
  Cell:       -4       0       3 atom pairs:        1
  Cell:       -4       0       4 atom pairs:        1
  Cell:       -4       1      -1 atom pairs:        1
  Cell:       -4       1       0 atom pairs:        1
  Cell:       -4       1       1 atom pairs:        1
  Cell:       -4       1       2 atom pairs:        1
  Cell:       -4       1       3 atom pairs:        1
  Cell:       -4       1       4 atom pairs:        1
  Cell:       -4       2      -1 atom pairs:        1
  Cell:       -4       2       0 atom pairs:        1
  Cell:       -4       2       1 atom pairs:        1
  Cell:       -4       2       2 atom pairs:        1
  Cell:       -4       2       3 atom pairs:        1
  Cell:       -4       3      -2 atom pairs:        1
  Cell:       -4       3      -1 atom pairs:        1
  Cell:       -4       3       0 atom pairs:        1
  Cell:       -4       3       1 atom pairs:        1
  Cell:       -4       3       2 atom pairs:        1
  Cell:       -4       3       3 atom pairs:        1
  Cell:       -4       4      -1 atom pairs:        1
  Cell:       -4       4       0 atom pairs:        1
  Cell:       -4       4       1 atom pairs:        1
  Cell:       -3      -3       2 atom pairs:        1
  Cell:       -3      -3       3 atom pairs:        1
  Cell:       -3      -3       4 atom pairs:        1
  Cell:       -3      -2       0 atom pairs:        1
  Cell:       -3      -2       1 atom pairs:        1
  Cell:       -3      -2       2 atom pairs:        1
  Cell:       -3      -2       3 atom pairs:        1
  Cell:       -3      -2       4 atom pairs:        1
  Cell:       -3      -2       5 atom pairs:        1
  Cell:       -3      -1      -1 atom pairs:        1
  Cell:       -3      -1       0 atom pairs:        1
  Cell:       -3      -1       1 atom pairs:        1
  Cell:       -3      -1       2 atom pairs:        1
  Cell:       -3      -1       3 atom pairs:        1
  Cell:       -3      -1       4 atom pairs:        1
  Cell:       -3      -1       5 atom pairs:        1
  Cell:       -3       0      -2 atom pairs:        1
  Cell:       -3       0      -1 atom pairs:        1
  Cell:       -3       0       0 atom pairs:        1
  Cell:       -3       0       1 atom pairs:        1
  Cell:       -3       0       2 atom pairs:        1
  Cell:       -3       0       3 atom pairs:        1
  Cell:       -3       0       4 atom pairs:        1
  Cell:       -3       0       5 atom pairs:        1
  Cell:       -3       1      -2 atom pairs:        1
  Cell:       -3       1      -1 atom pairs:        1
  Cell:       -3       1       0 atom pairs:        1
  Cell:       -3       1       1 atom pairs:        1
  Cell:       -3       1       2 atom pairs:        1
  Cell:       -3       1       3 atom pairs:        1
  Cell:       -3       1       4 atom pairs:        1
  Cell:       -3       2      -3 atom pairs:        1
  Cell:       -3       2      -2 atom pairs:        1
  Cell:       -3       2      -1 atom pairs:        1
  Cell:       -3       2       0 atom pairs:        1
  Cell:       -3       2       1 atom pairs:        1
  Cell:       -3       2       2 atom pairs:        1
  Cell:       -3       2       3 atom pairs:        1
  Cell:       -3       2       4 atom pairs:        1
  Cell:       -3       3      -3 atom pairs:        1
  Cell:       -3       3      -2 atom pairs:        1
  Cell:       -3       3      -1 atom pairs:        1
  Cell:       -3       3       0 atom pairs:        1
  Cell:       -3       3       1 atom pairs:        1
  Cell:       -3       3       2 atom pairs:        1
  Cell:       -3       3       3 atom pairs:        1
  Cell:       -3       4      -3 atom pairs:        1
  Cell:       -3       4      -2 atom pairs:        1
  Cell:       -3       4      -1 atom pairs:        1
  Cell:       -3       4       0 atom pairs:        1
  Cell:       -3       4       1 atom pairs:        1
  Cell:       -3       4       2 atom pairs:        1
  Cell:       -3       5      -2 atom pairs:        1
  Cell:       -3       5      -1 atom pairs:        1
  Cell:       -3       5       0 atom pairs:        1
  Cell:       -2      -4       3 atom pairs:        1
  Cell:       -2      -3       0 atom pairs:        1
  Cell:       -2      -3       1 atom pairs:        1
  Cell:       -2      -3       2 atom pairs:        1
  Cell:       -2      -3       3 atom pairs:        1
  Cell:       -2      -3       4 atom pairs:        1
  Cell:       -2      -3       5 atom pairs:        1
  Cell:       -2      -2      -1 atom pairs:        1
  Cell:       -2      -2       0 atom pairs:        1
  Cell:       -2      -2       1 atom pairs:        1
  Cell:       -2      -2       2 atom pairs:        1
  Cell:       -2      -2       3 atom pairs:        1
  Cell:       -2      -2       4 atom pairs:        1
  Cell:       -2      -2       5 atom pairs:        1
  Cell:       -2      -1      -2 atom pairs:        1
  Cell:       -2      -1      -1 atom pairs:        1
  Cell:       -2      -1       0 atom pairs:        1
  Cell:       -2      -1       1 atom pairs:        1
  Cell:       -2      -1       2 atom pairs:        1
  Cell:       -2      -1       3 atom pairs:        1
  Cell:       -2      -1       4 atom pairs:        1
  Cell:       -2      -1       5 atom pairs:        1
  Cell:       -2       0      -3 atom pairs:        1
  Cell:       -2       0      -2 atom pairs:        1
  Cell:       -2       0      -1 atom pairs:        1
  Cell:       -2       0       0 atom pairs:        1
  Cell:       -2       0       1 atom pairs:        1
  Cell:       -2       0       2 atom pairs:        1
  Cell:       -2       0       3 atom pairs:        1
  Cell:       -2       0       4 atom pairs:        1
  Cell:       -2       0       5 atom pairs:        1
  Cell:       -2       1      -3 atom pairs:        1
  Cell:       -2       1      -2 atom pairs:        1
  Cell:       -2       1      -1 atom pairs:        1
  Cell:       -2       1       0 atom pairs:        1
  Cell:       -2       1       1 atom pairs:        1
  Cell:       -2       1       2 atom pairs:        1
  Cell:       -2       1       3 atom pairs:        1
  Cell:       -2       1       4 atom pairs:        1
  Cell:       -2       2      -3 atom pairs:        1
  Cell:       -2       2      -2 atom pairs:        1
  Cell:       -2       2      -1 atom pairs:        1
  Cell:       -2       2       0 atom pairs:        1
  Cell:       -2       2       1 atom pairs:        1
  Cell:       -2       2       2 atom pairs:        1
  Cell:       -2       2       3 atom pairs:        1
  Cell:       -2       3      -4 atom pairs:        1
  Cell:       -2       3      -3 atom pairs:        1
  Cell:       -2       3      -2 atom pairs:        1
  Cell:       -2       3      -1 atom pairs:        1
  Cell:       -2       3       0 atom pairs:        1
  Cell:       -2       3       1 atom pairs:        1
  Cell:       -2       3       2 atom pairs:        1
  Cell:       -2       3       3 atom pairs:        1
  Cell:       -2       4      -3 atom pairs:        1
  Cell:       -2       4      -2 atom pairs:        1
  Cell:       -2       4      -1 atom pairs:        1
  Cell:       -2       4       0 atom pairs:        1
  Cell:       -2       4       1 atom pairs:        1
  Cell:       -2       5      -3 atom pairs:        1
  Cell:       -2       5      -2 atom pairs:        1
  Cell:       -2       5      -1 atom pairs:        1
  Cell:       -2       5       0 atom pairs:        1
  Cell:       -1      -4       1 atom pairs:        1
  Cell:       -1      -4       2 atom pairs:        1
  Cell:       -1      -4       3 atom pairs:        1
  Cell:       -1      -4       4 atom pairs:        1
  Cell:       -1      -3      -1 atom pairs:        1
  Cell:       -1      -3       0 atom pairs:        1
  Cell:       -1      -3       1 atom pairs:        1
  Cell:       -1      -3       2 atom pairs:        1
  Cell:       -1      -3       3 atom pairs:        1
  Cell:       -1      -3       4 atom pairs:        1
  Cell:       -1      -3       5 atom pairs:        1
  Cell:       -1      -2      -2 atom pairs:        1
  Cell:       -1      -2      -1 atom pairs:        1
  Cell:       -1      -2       0 atom pairs:        1
  Cell:       -1      -2       1 atom pairs:        1
  Cell:       -1      -2       2 atom pairs:        1
  Cell:       -1      -2       3 atom pairs:        1
  Cell:       -1      -2       4 atom pairs:        1
  Cell:       -1      -2       5 atom pairs:        1
  Cell:       -1      -1      -3 atom pairs:        1
  Cell:       -1      -1      -2 atom pairs:        1
  Cell:       -1      -1      -1 atom pairs:        1
  Cell:       -1      -1       0 atom pairs:        1
  Cell:       -1      -1       1 atom pairs:        1
  Cell:       -1      -1       2 atom pairs:        1
  Cell:       -1      -1       3 atom pairs:        1
  Cell:       -1      -1       4 atom pairs:        1
  Cell:       -1      -1       5 atom pairs:        1
  Cell:       -1       0      -3 atom pairs:        1
  Cell:       -1       0      -2 atom pairs:        1
  Cell:       -1       0      -1 atom pairs:        1
  Cell:       -1       0       0 atom pairs:        1
  Cell:       -1       0       1 atom pairs:        1
  Cell:       -1       0       2 atom pairs:        1
  Cell:       -1       0       3 atom pairs:        1
  Cell:       -1       0       4 atom pairs:        1
  Cell:       -1       1      -4 atom pairs:        1
  Cell:       -1       1      -3 atom pairs:        1
  Cell:       -1       1      -2 atom pairs:        1
  Cell:       -1       1      -1 atom pairs:        1
  Cell:       -1       1       0 atom pairs:        1
  Cell:       -1       1       1 atom pairs:        1
  Cell:       -1       1       2 atom pairs:        1
  Cell:       -1       1       3 atom pairs:        1
  Cell:       -1       1       4 atom pairs:        1
  Cell:       -1       2      -4 atom pairs:        1
  Cell:       -1       2      -3 atom pairs:        1
  Cell:       -1       2      -2 atom pairs:        1
  Cell:       -1       2      -1 atom pairs:        1
  Cell:       -1       2       0 atom pairs:        1
  Cell:       -1       2       1 atom pairs:        1
  Cell:       -1       2       2 atom pairs:        1
  Cell:       -1       2       3 atom pairs:        1
  Cell:       -1       3      -4 atom pairs:        1
  Cell:       -1       3      -3 atom pairs:        1
  Cell:       -1       3      -2 atom pairs:        1
  Cell:       -1       3      -1 atom pairs:        1
  Cell:       -1       3       0 atom pairs:        1
  Cell:       -1       3       1 atom pairs:        1
  Cell:       -1       3       2 atom pairs:        1
  Cell:       -1       4      -4 atom pairs:        1
  Cell:       -1       4      -3 atom pairs:        1
  Cell:       -1       4      -2 atom pairs:        1
  Cell:       -1       4      -1 atom pairs:        1
  Cell:       -1       4       0 atom pairs:        1
  Cell:       -1       4       1 atom pairs:        1
  Cell:       -1       5      -3 atom pairs:        1
  Cell:       -1       5      -2 atom pairs:        1
  Cell:       -1       5      -1 atom pairs:        1
  Cell:        0      -5       2 atom pairs:        1
  Cell:        0      -5       3 atom pairs:        1
  Cell:        0      -4       0 atom pairs:        1
  Cell:        0      -4       1 atom pairs:        1
  Cell:        0      -4       2 atom pairs:        1
  Cell:        0      -4       3 atom pairs:        1
  Cell:        0      -4       4 atom pairs:        1
  Cell:        0      -3      -2 atom pairs:        1
  Cell:        0      -3      -1 atom pairs:        1
  Cell:        0      -3       0 atom pairs:        1
  Cell:        0      -3       1 atom pairs:        1
  Cell:        0      -3       2 atom pairs:        1
  Cell:        0      -3       3 atom pairs:        1
  Cell:        0      -3       4 atom pairs:        1
  Cell:        0      -3       5 atom pairs:        1
  Cell:        0      -2      -3 atom pairs:        1
  Cell:        0      -2      -2 atom pairs:        1
  Cell:        0      -2      -1 atom pairs:        1
  Cell:        0      -2       0 atom pairs:        1
  Cell:        0      -2       1 atom pairs:        1
  Cell:        0      -2       2 atom pairs:        1
  Cell:        0      -2       3 atom pairs:        1
  Cell:        0      -2       4 atom pairs:        1
  Cell:        0      -2       5 atom pairs:        1
  Cell:        0      -1      -3 atom pairs:        1
  Cell:        0      -1      -2 atom pairs:        1
  Cell:        0      -1      -1 atom pairs:        1
  Cell:        0      -1       0 atom pairs:        1
  Cell:        0      -1       1 atom pairs:        1
  Cell:        0      -1       2 atom pairs:        1
  Cell:        0      -1       3 atom pairs:        1
  Cell:        0      -1       4 atom pairs:        1
  Cell:        0       0      -4 atom pairs:        1
  Cell:        0       0      -3 atom pairs:        1
  Cell:        0       0      -2 atom pairs:        1
  Cell:        0       0      -1 atom pairs:        1
  Cell:        0       0       0 atom pairs:        1
  Cell:        0       0       1 atom pairs:        1
  Cell:        0       0       2 atom pairs:        1
  Cell:        0       0       3 atom pairs:        1
  Cell:        0       0       4 atom pairs:        1
  Cell:        0       1      -4 atom pairs:        1
  Cell:        0       1      -3 atom pairs:        1
  Cell:        0       1      -2 atom pairs:        1
  Cell:        0       1      -1 atom pairs:        1
  Cell:        0       1       0 atom pairs:        1
  Cell:        0       1       1 atom pairs:        1
  Cell:        0       1       2 atom pairs:        1
  Cell:        0       1       3 atom pairs:        1
  Cell:        0       2      -5 atom pairs:        1
  Cell:        0       2      -4 atom pairs:        1
  Cell:        0       2      -3 atom pairs:        1
  Cell:        0       2      -2 atom pairs:        1
  Cell:        0       2      -1 atom pairs:        1
  Cell:        0       2       0 atom pairs:        1
  Cell:        0       2       1 atom pairs:        1
  Cell:        0       2       2 atom pairs:        1
  Cell:        0       2       3 atom pairs:        1
  Cell:        0       3      -5 atom pairs:        1
  Cell:        0       3      -4 atom pairs:        1
  Cell:        0       3      -3 atom pairs:        1
  Cell:        0       3      -2 atom pairs:        1
  Cell:        0       3      -1 atom pairs:        1
  Cell:        0       3       0 atom pairs:        1
  Cell:        0       3       1 atom pairs:        1
  Cell:        0       3       2 atom pairs:        1
  Cell:        0       4      -4 atom pairs:        1
  Cell:        0       4      -3 atom pairs:        1
  Cell:        0       4      -2 atom pairs:        1
  Cell:        0       4      -1 atom pairs:        1
  Cell:        0       4       0 atom pairs:        1
  Cell:        0       5      -3 atom pairs:        1
  Cell:        0       5      -2 atom pairs:        1
  Cell:        1      -5       1 atom pairs:        1
  Cell:        1      -5       2 atom pairs:        1
  Cell:        1      -5       3 atom pairs:        1
  Cell:        1      -4      -1 atom pairs:        1
  Cell:        1      -4       0 atom pairs:        1
  Cell:        1      -4       1 atom pairs:        1
  Cell:        1      -4       2 atom pairs:        1
  Cell:        1      -4       3 atom pairs:        1
  Cell:        1      -4       4 atom pairs:        1
  Cell:        1      -3      -2 atom pairs:        1
  Cell:        1      -3      -1 atom pairs:        1
  Cell:        1      -3       0 atom pairs:        1
  Cell:        1      -3       1 atom pairs:        1
  Cell:        1      -3       2 atom pairs:        1
  Cell:        1      -3       3 atom pairs:        1
  Cell:        1      -3       4 atom pairs:        1
  Cell:        1      -2      -3 atom pairs:        1
  Cell:        1      -2      -2 atom pairs:        1
  Cell:        1      -2      -1 atom pairs:        1
  Cell:        1      -2       0 atom pairs:        1
  Cell:        1      -2       1 atom pairs:        1
  Cell:        1      -2       2 atom pairs:        1
  Cell:        1      -2       3 atom pairs:        1
  Cell:        1      -2       4 atom pairs:        1
  Cell:        1      -1      -4 atom pairs:        1
  Cell:        1      -1      -3 atom pairs:        1
  Cell:        1      -1      -2 atom pairs:        1
  Cell:        1      -1      -1 atom pairs:        1
  Cell:        1      -1       0 atom pairs:        1
  Cell:        1      -1       1 atom pairs:        1
  Cell:        1      -1       2 atom pairs:        1
  Cell:        1      -1       3 atom pairs:        1
  Cell:        1      -1       4 atom pairs:        1
  Cell:        1       0      -4 atom pairs:        1
  Cell:        1       0      -3 atom pairs:        1
  Cell:        1       0      -2 atom pairs:        1
  Cell:        1       0      -1 atom pairs:        1
  Cell:        1       0       0 atom pairs:        1
  Cell:        1       0       1 atom pairs:        1
  Cell:        1       0       2 atom pairs:        1
  Cell:        1       0       3 atom pairs:        1
  Cell:        1       1      -5 atom pairs:        1
  Cell:        1       1      -4 atom pairs:        1
  Cell:        1       1      -3 atom pairs:        1
  Cell:        1       1      -2 atom pairs:        1
  Cell:        1       1      -1 atom pairs:        1
  Cell:        1       1       0 atom pairs:        1
  Cell:        1       1       1 atom pairs:        1
  Cell:        1       1       2 atom pairs:        1
  Cell:        1       1       3 atom pairs:        1
  Cell:        1       2      -5 atom pairs:        1
  Cell:        1       2      -4 atom pairs:        1
  Cell:        1       2      -3 atom pairs:        1
  Cell:        1       2      -2 atom pairs:        1
  Cell:        1       2      -1 atom pairs:        1
  Cell:        1       2       0 atom pairs:        1
  Cell:        1       2       1 atom pairs:        1
  Cell:        1       2       2 atom pairs:        1
  Cell:        1       3      -5 atom pairs:        1
  Cell:        1       3      -4 atom pairs:        1
  Cell:        1       3      -3 atom pairs:        1
  Cell:        1       3      -2 atom pairs:        1
  Cell:        1       3      -1 atom pairs:        1
  Cell:        1       3       0 atom pairs:        1
  Cell:        1       3       1 atom pairs:        1
  Cell:        1       4      -4 atom pairs:        1
  Cell:        1       4      -3 atom pairs:        1
  Cell:        1       4      -2 atom pairs:        1
  Cell:        1       4      -1 atom pairs:        1
  Cell:        2      -5       0 atom pairs:        1
  Cell:        2      -5       1 atom pairs:        1
  Cell:        2      -5       2 atom pairs:        1
  Cell:        2      -5       3 atom pairs:        1
  Cell:        2      -4      -1 atom pairs:        1
  Cell:        2      -4       0 atom pairs:        1
  Cell:        2      -4       1 atom pairs:        1
  Cell:        2      -4       2 atom pairs:        1
  Cell:        2      -4       3 atom pairs:        1
  Cell:        2      -3      -3 atom pairs:        1
  Cell:        2      -3      -2 atom pairs:        1
  Cell:        2      -3      -1 atom pairs:        1
  Cell:        2      -3       0 atom pairs:        1
  Cell:        2      -3       1 atom pairs:        1
[...]
  | ---------------------------
  | Total energy                  :       -1662.74358831 Ha      -45245.55510643 eV
  | Total energy, T -> 0          :       -1662.74359390 Ha      -45245.55525843 eV  <-- do not rely on this value for anything but (periodic) metals
  | Electronic free energy        :       -1662.74359948 Ha      -45245.55541043 eV

  Derived energy quantities:
  | Kinetic energy                :        1687.88552198 Ha       45929.70193046 eV
  | Electrostatic energy          :       -3282.83927270 Ha      -89330.60170108 eV
  | Energy correction for multipole
  | error in Hartree potential    :          -0.00011744 Ha          -0.00319584 eV
  | Sum of eigenvalues per atom                           :      -26628.08838531 eV
  | Total energy (T->0) per atom                          :      -45245.55525843 eV  <-- do not rely on this value for anything but (periodic) metals
  | Electronic free energy per atom                       :      -45245.55541043 eV
  Evaluating new KS density using the density matrix
  Evaluating density matrix
  Time summed over all CPUs for getting density from density matrix: real work       41.832 s, elapsed       47.526 s
  
  Evaluating density-matrix-based force terms: batch-based integration
  Evaluating density matrix
  Evaluating density matrix
  Integration grid: deviation in total charge (<rho> - N_e) =   4.589751E-11

  atomic forces [eV/Ang]:
  -----------------------
  atom #    1
   Hellmann-Feynman              : -0.417635E-10 -0.143409E-09 -0.191095E-09
   Ionic forces                  :  0.000000E+00  0.000000E+00  0.000000E+00
   Multipole                     :  0.833225E-11  0.774322E-11  0.138645E-10
   Hartree-Fock exchange         :  0.000000E+00  0.000000E+00  0.000000E+00
   Hartree pot. SCF incomplete   :  0.123305E-10  0.338075E-10 -0.236748E-10
   Pulay + GGA                   : -0.501018E-07  0.191181E-07  0.911140E-07
   Van der Waals                 :  0.000000E+00  0.000000E+00  0.000000E+00
   ----------------------------------------------------------------
   Total forces(   1)            : -0.501229E-07  0.190162E-07  0.909131E-07


  Self-consistency convergence accuracy:
  | Change of charge density      :  0.5625E-08
  | Change of unmixed KS density  :  0.2093E-07
  | Change of sum of eigenvalues  :  0.1776E-04 eV
  | Change of total energy        : -0.3372E-05 eV
  | Change of forces              :  0.1055E-06 eV/A

  Writing Kohn-Sham eigenvalues.
  K-point:       1 at    0.000000    0.000000    0.000000 (in units of recip. lattice)

  State    Occupation    Eigenvalue [Ha]    Eigenvalue [eV]
      1       2.00000        -330.685592        -8998.41278
      2       2.00000         -39.891902        -1085.51387
      3       2.00000         -34.393384         -935.89159
      4       2.00000         -34.393384         -935.89159
      5       2.00000         -34.393384         -935.89159
      6       2.00000          -4.580753         -124.64863
      7       2.00000          -2.949968          -80.27272
      8       2.00000          -2.949968          -80.27272
      9       2.00000          -2.949968          -80.27272
     10       2.00000          -0.604615          -16.45242
     11       2.00000          -0.385060          -10.47801
     12       2.00000          -0.385060          -10.47801
     13       2.00000          -0.385060          -10.47801
     14       2.00000          -0.354001           -9.63285
     15       2.00000          -0.354001           -9.63285
     16       0.00000           0.695225           18.91804
     17       0.00000           0.800903           21.79369
     18       0.00000           0.800903           21.79369
     19       0.00000           0.800904           21.79372
     20       0.00000           0.955829           26.00942
     21       0.00000           0.955829           26.00942

  What follows are estimated values for band gap, HOMO, LUMO, etc.
  | They are estimated on a discrete k-point grid and not necessarily exact.
  | For converged numbers, create a DOS and/or band structure plot on a denser k-grid.

  Highest occupied state (VBM) at     -6.10975048 eV (relative to internal zero)
  | Occupation number:      1.33030194
  | K-point:    1022 at    0.083333    0.666667    0.625000 (in units of recip. lattice)

  Lowest unoccupied state (CBM) at    -6.08517331 eV (relative to internal zero)
  | Occupation number:      0.78824913
  | K-point:     840 at    0.083333    0.250000    0.500000 (in units of recip. lattice)

  ESTIMATED overall HOMO-LUMO gap:      0.02457717 eV between HOMO at k-point 1022 and LUMO at k-point 840
  | This appears to be an indirect band gap.
  | Smallest direct gap :      2.85822210 eV for k_point 2891 at    0.291667    0.000000    0.458333 (in units of recip. lattice)
  However, this system has fractional occupation numbers. Since we use a finite k-point grid,
  this material is metallic within the approximate finite broadening function (occupation_type)
  applied to determine the occupation numbers.

  | Chemical Potential                          :    -6.09466922 eV
  | Note that, for insulating systems, the printed 'chemical potential' value is not uniquely defined.
  | It can be anywhere in the energy gap, as long as it correctly separates occupied and unoccupied states.
  | In systems with a gap, the physically relevant chemical potential is the VBM or HOMO.

  Self-consistency cycle converged.


------------------------------------------------------------
  End self-consistency iteration #    19       :  max(cpu_time)    wall_clock(cpu1)
  | Time for this iteration                     :      160.563 s         160.468 s
  | Charge density & force component update     :        5.854 s           5.855 s
  | Density mixing                              :        0.142 s           0.027 s
  | Hartree multipole update                    :        0.001 s           0.001 s
  | Hartree multipole summation                 :        0.090 s           0.090 s
  | Hartree pot. SCF incomplete forces          :        0.129 s           0.129 s
  | Integration                                 :        0.436 s           0.437 s
  | Fock matrix evaluation                      :      153.366 s         153.376 s
  | Solution of K.-S. eqns.                     :        0.539 s           0.539 s
  | Total energy evaluation                     :        0.006 s           0.006 s

  Partial memory accounting:
  | Current value for overall tracked memory usage:
  |   Minimum:      255.820 MB (on task 16)
  |   Maximum:      270.969 MB (on task 62)
  |   Average:      265.995 MB
  | Peak value for overall tracked memory usage:
  |   Minimum:      717.334 MB (on task 63 after allocating tmp2_aux_mem)
  |   Maximum:      872.591 MB (on task  0 after allocating tmp2_aux_mem)
  |   Average:      753.916 MB
  | Largest tracked array allocation so far:
  |   Minimum:      168.750 MB (dm_cols_mem on task 13)
  |   Maximum:      274.031 MB (dm_cols_mem on task  0)
  |   Average:      175.692 MB
  Note:  These values currently only include a subset of arrays which are explicitly tracked.
  The "true" memory usage will be greater.
------------------------------------------------------------
  Obtaining max. number of non-zero basis functions in each batch .
  Evaluating KS electron density on previously omitted grid points, using the density matrix.
  Evaluating density matrix

  Entering Libmbd.
  Libmbd: VdW method: mbd-nl
  Libmbd: Evaluating kinetic energy density...

  Evaluating density matrix

  Libmbd: Performing Hirshfeld analysis...
  Libmbd: Calculating MBD energy...
  Libmbd: Evaluated energy: -0.11272109381184831E-001

  Leaving Libmbd.


  Total energy components:
  | Sum of eigenvalues            :        -978.56426178 Ha      -26628.08838531 eV
  | XC energy correction          :         -35.53636537 Ha        -966.99370188 eV
  | XC potential correction       :          66.87245052 Ha        1819.69196358 eV
  | Free-atom electrostatic energy:        -717.29210574 Ha      -19518.51128815 eV
  | Hartree energy correction     :           1.77669406 Ha          48.34630532 eV
  | vdW energy correction         :          -0.01127211 Ha          -0.30672970 eV
  | Entropy correction            :          -0.00000559 Ha          -0.00015200 eV
  | ---------------------------
  | Total energy                  :       -1662.75486042 Ha      -45245.86183614 eV
  | Total energy, T -> 0          :       -1662.75486601 Ha      -45245.86198813 eV  <-- do not rely on this value for anything but (periodic) metals
  | Electronic free energy        :       -1662.75487159 Ha      -45245.86214013 eV

  Derived energy quantities:
  | Kinetic energy                :        1687.88552198 Ha       45929.70193046 eV
  | Electrostatic energy          :       -3282.83927270 Ha      -89330.60170108 eV
  | Energy correction for multipole
  | error in Hartree potential    :          -0.00011744 Ha          -0.00319584 eV
  | Sum of eigenvalues per atom                           :      -26628.08838531 eV
  | Total energy (T->0) per atom                          :      -45245.86198813 eV  <-- do not rely on this value for anything but (periodic) metals
  | Electronic free energy per atom                       :      -45245.86214013 eV

  atomic forces [eV/Ang]:
  -----------------------
  atom #    1
   Hellmann-Feynman              : -0.417635E-10 -0.143409E-09 -0.191095E-09
   Ionic forces                  :  0.000000E+00  0.000000E+00  0.000000E+00
   Multipole                     :  0.833225E-11  0.774322E-11  0.138645E-10
   Hartree-Fock exchange         :  0.000000E+00  0.000000E+00  0.000000E+00
   Hartree pot. SCF incomplete   :  0.123305E-10  0.338075E-10 -0.236748E-10
   Pulay + GGA                   : -0.501018E-07  0.191181E-07  0.911140E-07
   Van der Waals                 : -0.000000E+00 -0.000000E+00 -0.000000E+00
   ----------------------------------------------------------------
   Total forces(   1)            : -0.501229E-07  0.190162E-07  0.909131E-07

  Timings for VdW correction (Tkatchenko-Scheffler 2009 or later):
  | CPU time:        1.408 s, Wall clock time:        1.407 s.
  Removing unitary transformations (pure translations, rotations) from forces on atoms.
  Atomic forces before filtering:
  | Net force on center of mass :  -0.501229E-07  0.190162E-07  0.909131E-07 eV/A
  Atomic forces after filtering:
  | Net force on center of mass :   0.000000E+00  0.000000E+00  0.000000E+00 eV/A

  Energy and forces in a compact form:
  | Total energy uncorrected      :         -0.452458618361370E+05 eV
  | Total energy corrected        :         -0.452458619881323E+05 eV  <-- do not rely on this value for anything but (periodic) metals
  | Electronic free energy        :         -0.452458621401276E+05 eV
  Total atomic forces (unitary forces cleaned) [eV/Ang]:
  |    1          0.000000000000000E+00          0.000000000000000E+00          0.000000000000000E+00

  ------------------------------------ 
  Start decomposition of the XC Energy 
  ------------------------------------ 
  X and C from original XC functional choice 
  Hartree-Fock Energy :        -16.126736097 Ha           -438.830816668 eV
  X Energy            :        -66.389333831 Ha          -1806.545689582 eV
  C Energy            :         -1.400503746 Ha            -38.109645937 eV
  XC Energy w/o HF    :        -51.663101481 Ha          -1405.824518852 eV
  Total XC Energy     :        -67.789837578 Ha          -1844.655335520 eV
  ------------------------------------ 
  LDA X and C from self-consistent density 
  X Energy LDA        :        -62.663802290 Ha          -1705.168818356 eV
  C Energy LDA        :         -2.569624719 Ha            -69.923046260 eV
  ------------------------------------ 
  End decomposition of the XC Energy 
  ------------------------------------ 

------------------------------------------------------------

------------------------------------------------------------------------------
  Final output of selected total energy values:

  The following output summarizes some interesting total energy values
  at the end of a run (AFTER all relaxation, molecular dynamics, etc.).

  | Total energy of the DFT / Hartree-Fock s.c.f. calculation      :         -45245.861836137 eV
  | Final zero-broadening corrected energy (caution - metals only) :         -45245.861988132 eV
  | For reference only, the value of 1 Hartree used in FHI-aims is :             27.211384500 eV
  | For reference only, the overall average (free atom contribution
  | + realspace contribution) of the electrostatic potential after
  | s.c.f. convergence is                                          :            -23.295463596 eV

  Before relying on these values, please be sure to understand exactly which
  total energy value is referred to by a given number. Different objects may
  all carry the same name 'total energy'. Definitions:

  Total energy of the DFT / Hartree-Fock s.c.f. calculation:
  | Note that this energy does not include ANY quantities calculated after the
  | s.c.f. cycle, in particular not ANY RPA, MP2, etc. many-body perturbation terms.

  Final zero-broadening corrected energy:
  | For metallic systems only, a broadening of the occupation numbers at the Fermi
  | level can be extrapolated back to zero broadening by an electron-gas inspired
  | formula. For all systems that are not real metals, this value can be
  | meaningless and should be avoided.

------------------------------------------------------------------------------
  Methods described in the following list of references were used in this FHI-aims run.
  If you publish the results, please make sure to cite these reference if they apply.
  FHI-aims is an academic code, and for our developers (often, Ph.D. students
  and postdocs), scientific credit in the community is essential.
  Thank you for helping us!

  For any use of FHI-aims, please cite:

    Volker Blum, Ralf Gehrke, Felix Hanke, Paula Havu, Ville Havu,
    Xinguo Ren, Karsten Reuter, and Matthias Scheffler
    'Ab initio molecular simulations with numeric atom-centered orbitals'
    Computer Physics Communications 180, 2175-2196 (2009)
    http://doi.org/10.1016/j.cpc.2009.06.022


  For Hartree-Fock, hybrid functionals, or many-body perturbation theory used in your run, please cite:

    Xinguo Ren, Patrick Rinke, Volker Blum, Juergen Wieferink, Alex Tkatchenko,
    Andrea Sanfilippo, Karsten Reuter, and Matthias Scheffler,
    'Resolution-of-identity approach to Hartree-Fock, hybrid density functionals,
    RPA, MP2, and GW with numeric atom-centered orbital basis functions'
    New Journal of Physics 14, 053020 (2012).
    http://doi.org/10.1088/1367-2630/14/5/053020


  The provided symmetry information was generated with SPGlib:

    Atsushi Togo, Yusuke Seto, Dimitar Pashov
    SPGlib 1.7.3 obtained from http://spglib.sourceforge.net
    Licence: New BSD license
    Copyright (C) 2008 Atsushi Togo


  The ELSI infrastructure was used in your run to solve the Kohn-Sham electronic structure.
  Please check out https://wordpress.elsi-interchange.org to learn more.
  If scalability is important for your project, please acknowledge ELSI by citing:

    V. W-z. Yu, F. Corsetti, A. Garcia, W. P. Huhn, M. Jacquelin, W. Jia,
    B. Lange, L. Lin, J. Lu, W. Mi, A. Seifitokaldani, A. Vazquez-Mayagoitia,
    C. Yang, H. Yang, and V. Blum
    'ELSI: A unified software interface for Kohn-Sham electronic structure solvers'
    Computer Physics Communications 222, 267-285 (2018).
    http://doi.org/10.1016/j.cpc.2017.09.007


  For the real-space grid partitioning and parallelization used in this calculation, please cite:

    Ville Havu, Volker Blum, Paula Havu, and Matthias Scheffler,
    'Efficient O(N) integration for all-electron electronic structure calculation'
    'using numerically tabulated basis functions'
    Journal of Computational Physics 228, 8367-8379 (2009).
    http://doi.org/10.1016/j.jcp.2009.08.008


  The high-level electronic structure method used in your calculation
  employed our efficient localized resolution of identity for the Coulomb operator.
  Some calculations, especially large-scale hybrid density functional theory,
  are only possible thanks to this development. For this feature, please cite:

    Arvid Ihrig, Juergen Wieferink, Igor Ying Zhang, Matti Ropo, Xinguo Ren,
    Patrick Rinke, Matthias Scheffler, and Volker Blum,
    'Accurate localized resolution of identity approach for linear-scaling
    hybrid density functionals and for many-body perturbation theory'
    New Journal of Physics 117, 093020 (2015).
    http://doi.org/10.1088/1367-2630/17/9/093020

  Of course, there are many other important community references, e.g., those cited in the
  above references. Our list is limited to references that describe implementations in the
  FHI-aims code. The reason is purely practical (length of this list) - please credit others as well.

------------------------------------------------------------
          Leaving FHI-aims.
          Date     :  20240406, Time     :  012103.574

          Computational steps:
          | Number of self-consistency cycles          :           19
          | Number of SCF (re)initializations          :            1

          Detailed time accounting                     :  max(cpu_time)    wall_clock(cpu1)
          | Total time                                  :     4477.500 s        4648.343 s
          | Preparation time                            :        0.275 s           0.274 s
          | Boundary condition initalization            :        8.182 s           8.183 s
          | Grid partitioning                           :        0.031 s           0.030 s
          | Preloading free-atom quantities on grid     :        0.097 s           0.097 s
          | Free-atom superposition energy              :        0.006 s           0.006 s
          | Total time for integrations                 :        9.060 s           9.058 s
          | Product basis setup: Total time             :     1453.989 s        1454.096 s
          | Total time evaluating exchange matrix       :     2563.925 s        2564.340 s
          | Total time for solution of K.-S. equations  :        9.906 s           9.911 s
          | Total time for density & force components   :       21.481 s          21.481 s
          | Total time for mixing                       :      459.657 s         201.903 s
          | Total time for Hartree multipole update     :        0.023 s           0.024 s
          | Total time for Hartree multipole sum        :        0.462 s           0.465 s
          | Total time for total energy evaluation      :        0.119 s           0.116 s
          | Total time NSC force correction             :        0.129 s           0.129 s
          | Total time for scaled ZORA corrections      :        0.000 s           0.000 s
          | Total time for vdW correction               :        1.408 s           1.407 s

          Partial memory accounting:
          | Residual value for overall tracked memory usage across tasks:     0.000000 MB (should be 0.000000 MB)
          | Peak values for overall tracked memory usage:
          |   Minimum:      717.334 MB (on task 63 after allocating tmp2_aux_mem)
          |   Maximum:      872.591 MB (on task  0 after allocating tmp2_aux_mem)
          |   Average:      753.916 MB
          | Largest tracked array allocation:
          |   Minimum:      168.750 MB (dm_cols_mem on task 13)
          |   Maximum:      274.031 MB (dm_cols_mem on task  0)
          |   Average:      175.692 MB
          Note:  These values currently only include a subset of arrays which are explicitly tracked.
          The "true" memory usage will be greater.

          Have a nice day.
------------------------------------------------------------
