------------------------------------------------------------
          Invoking FHI-aims ...

          When using FHI-aims, please cite the following reference:

            Volker Blum, Ralf Gehrke, Felix Hanke, Paula Havu,
            Ville Havu, Xinguo Ren, Karsten Reuter, and Matthias Scheffler,
            'Ab Initio Molecular Simulations with Numeric Atom-Centered Orbitals',
            Computer Physics Communications 180, 2175-2196 (2009)

          In addition, many other developments in FHI-aims are likely important for
          your particular application. If so, please cite them. A partial list of references
          is written at the end of this file. Thank you for giving credit to the authors
          of these developments.

          For general information about FHI-aims please find us at

            https://fhi-aims.org

          Online tutorials can be found at

            https://fhi-aims-club.gitlab.io/tutorials/tutorials-overview/

          For any questions about FHI-aims, please visit our slack channel at

            https://fhi-aims.slack.com

          and our main development and support site at

            https://aims-git.rz-berlin.mpg.de .

          The latter site, in particular, has a wiki to collect information, as well
          as an issue tracker to log discussions, suggest improvements, and report issues
          or bugs. https://aims-git.rz-berlin.mpg.de is also the main development site
          of the project and all new and updated code versions can be obtained there.
          Please send an email to aims-coordinators@fhi-berlin.mpg.de and we will add
          you to these sites. They are for you and everyone is welcome there.

------------------------------------------------------------



  Date     :  20240501, Time     :  175646.456
  Time zero on CPU 1             :   0.215000000000000E-01  s.
  Internal wall clock time zero  :           483818206.456  s.

  FHI-aims created a unique identifier for this run for later identification
  aims_uuid : 1E74FBC8-52D6-41A5-A875-5CF0148209DF

  Build configuration of the current instance of FHI-aims
  -------------------------------------------------------
  FHI-aims version      : 240206
  Commit number         : 2d3e5a79f
  CMake host system     : Linux-6.7.4-zen1-1-zen
  CMake version         : 3.28.3
  Fortran compiler      : /usr/bin/mpifort (GNU) version 13.2.1
  Fortran compiler flags: -fallow-argument-mismatch -march=native -ffree-line-length-none -fallow-argument-mismatch -march=native -ffree-line-length-none
  C compiler            : /usr/bin/gcc (GNU) version 13.2.1
  C compiler flags      :  -march=native
  C++ compiler          : /usr/bin/g++ (GNU) version 13.2.1
  C++ compiler flags    :  -march=native
  HIP compiler          :
  HIP compiler flags    :
  HIP GPU arch          :
  Using MPI
  Using ScaLAPACK
  Using LibXC
  Using i-PI
  Using RLSY
  Linking against: /usr/lib/libscalapack.so
                   /usr/lib/libopenblas.so

  Using        4 parallel tasks.
  Task        0 on host arch reporting.
  Task        1 on host arch reporting.
  Task        2 on host arch reporting.
  Task        3 on host arch reporting.

  Memory overcommitment is allowed on your operating system.

  Obtaining array dimensions for all initial allocations:
  
  -----------------------------------------------------------------------
  Parsing control.in (first pass over file, find array dimensions only).
  The contents of control.in will be repeated verbatim below
  unless switched off by setting 'verbatim_writeout .false.' .
  in the first line of control.in .
  -----------------------------------------------------------------------
  
  xc                           pbe
  relax_geometry               bfgs 5e-3
  sc_accuracy_rho              1e-10
  sc_accuracy_eev              1e-6
  sc_accuracy_etot             1e-12
  sc_accuracy_forces           1e-8
  ################################################################################
  #
  #  FHI-aims code project
  #  VB, Fritz-Haber Institut, 2009
  #
  #  Suggested "light" defaults for O atom (to be pasted into control.in file)
  #  Be sure to double-check any results obtained with these settings for post-processing,
  #  e.g., with the "tight" defaults and larger basis sets.
  #
  ################################################################################
    species        O
  #     global species definitions
      nucleus             8
      mass                15.9994
  #
      l_hartree           4
  #
      cut_pot             3.5  1.5  1.0
      basis_dep_cutoff    1e-4
  #
      radial_base         36 5.0
      radial_multiplier   1
       angular_grids specified
        division   0.2659   50
        division   0.4451  110
        division   0.6052  194
        division   0.7543  302
  #      division   0.8014  434
  #      division   0.8507  590
  #      division   0.8762  770
  #      division   0.9023  974
  #      division   1.2339 1202
  #      outer_grid 974
        outer_grid 302
  ################################################################################
  #
  #  Definition of "minimal" basis
  #
  ################################################################################
  #     valence basis states
      valence      2  s   2.
      valence      2  p   4.
  #     ion occupancy
      ion_occ      2  s   1.
      ion_occ      2  p   3.
  ################################################################################
  #
  #  Suggested additional basis functions. For production calculations,
  #  uncomment them one after another (the most important basis functions are
  #  listed first).
  #
  #  Constructed for dimers: 1.0 A, 1.208 A, 1.5 A, 2.0 A, 3.0 A
  #
  ################################################################################
  #  "First tier" - improvements: -699.05 meV to -159.38 meV
       hydro 2 p 1.8
       hydro 3 d 7.6
       hydro 3 s 6.4
  #  "Second tier" - improvements: -49.91 meV to -5.39 meV
  #     hydro 4 f 11.6
  #     hydro 3 p 6.2
  #     hydro 3 d 5.6
  #     hydro 5 g 17.6
  #     hydro 1 s 0.75
  #  "Third tier" - improvements: -2.83 meV to -0.50 meV
  #     ionic 2 p auto
  #     hydro 4 f 10.8
  #     hydro 4 d 4.7
  #     hydro 2 s 6.8
  #  "Fourth tier" - improvements: -0.40 meV to -0.12 meV
  #     hydro 3 p 5
  #     hydro 3 s 3.3
  #     hydro 5 g 15.6
  #     hydro 4 f 17.6
  #     hydro 4 d 14
  # Further basis functions - -0.08 meV and below
  #     hydro 3 s 2.1
  #     hydro 4 d 11.6
  #     hydro 3 p 16
  #     hydro 2 s 17.2
  ################################################################################
  #
  #  FHI-aims code project
  #  VB, Fritz-Haber Institut, 2009
  #
  #  Suggested "light" defaults for H atom (to be pasted into control.in file)
  #  Be sure to double-check any results obtained with these settings for post-processing,
  #  e.g., with the "tight" defaults and larger basis sets.
  #
  ################################################################################
    species        H
  #     global species definitions
      nucleus             1
      mass                1.00794
  #
      l_hartree           4
  #
      cut_pot             3.5  1.5  1.0
      basis_dep_cutoff    1e-4
  #
      radial_base         24 5.0
      radial_multiplier   1
      angular_grids       specified
        division   0.2421   50
        division   0.3822  110
        division   0.4799  194
        division   0.5341  302
  #      division   0.5626  434
  #      division   0.5922  590
  #      division   0.6542  770
  #      division   0.6868 1202
  #      outer_grid  770
        outer_grid  302
  ################################################################################
  #
  #  Definition of "minimal" basis
  #
  ################################################################################
  #     valence basis states
      valence      1  s   1.
  #     ion occupancy
      ion_occ      1  s   0.5
  ################################################################################
  #
  #  Suggested additional basis functions. For production calculations,
  #  uncomment them one after another (the most important basis functions are
  #  listed first).
  #
  #  Basis constructed for dimers: 0.5 A, 0.7 A, 1.0 A, 1.5 A, 2.5 A
  #
  ################################################################################
  #  "First tier" - improvements: -1014.90 meV to -62.69 meV
       hydro 2 s 2.1
       hydro 2 p 3.5
  #  "Second tier" - improvements: -12.89 meV to -1.83 meV
  #     hydro 1 s 0.85
  #     hydro 2 p 3.7
  #     hydro 2 s 1.2
  #     hydro 3 d 7
  #  "Third tier" - improvements: -0.25 meV to -0.12 meV
  #     hydro 4 f 11.2
  #     hydro 3 p 4.8
  #     hydro 4 d 9
  #     hydro 3 s 3.2
  
  -----------------------------------------------------------------------
  Completed first pass over input file control.in .
  -----------------------------------------------------------------------
  
  
  -----------------------------------------------------------------------
  Parsing geometry.in (first pass over file, find array dimensions only).
  The contents of geometry.in will be repeated verbatim below
  unless switched off by setting 'verbatim_writeout .false.' .
  in the first line of geometry.in .
  -----------------------------------------------------------------------
  
  atom       0.00000000     -0.07320103     -0.00000000 O
  atom       0.76731112     -0.77039949     -0.00000000 H
  atom      -0.76731112     -0.77039949     -0.00000000 H
  
  -----------------------------------------------------------------------
  Completed first pass over input file geometry.in .
  -----------------------------------------------------------------------
  

  Basic array size parameters:
  | Number of species                 :        2
  | Number of atoms                   :        3
  | Max. basis fn. angular momentum   :        2
  | Max. atomic/ionic basis occupied n:        2
  | Max. number of basis fn. types    :        2
  | Max. radial fns per species/type  :        3
  | Max. logarithmic grid size        :     1301
  | Max. radial integration grid size :       36
  | Max. angular integration grid size:      302
  | Max. angular grid division number :        8
  | Radial grid for Hartree potential :     1301
  | Number of spin channels           :        1

------------------------------------------------------------
          Reading file control.in.
------------------------------------------------------------
  XC: Using PBE gradient-corrected functionals.
  Geometry relaxation: Modified BFGS - TRM (trust radius method) for lattice optimization.
  Convergence accuracy for geometry relaxation: Maximum force <   0.500000E-02 eV/A.
  Convergence accuracy of self-consistent charge density:  0.1000E-09
  Convergence accuracy of sum of eigenvalues:  0.1000E-05
  Convergence accuracy of total energy:  0.1000E-11
  Convergence accuracy of forces:  0.1000E-07

  Reading configuration options for species O                   .
  | Found nuclear charge :   8.0000
  | Found atomic mass :    15.999400000000000      amu
  | Found l_max for Hartree potential  :   4
  | Found cutoff potl. onset [A], width [A], scale factor :    3.50000    1.50000    1.00000
  | Threshold for basis-dependent cutoff potential is   0.100000E-03
  | Found data for basic radial integration grid :    36 points, outermost radius =    5.000 A
  | Found multiplier for basic radial grid :   1
  | Found angular grid specification: user-specified.
  | Specified grid contains     5 separate shells.
  | Check grid settings after all constraints further below.
  | Found free-atom valence shell :  2 s   2.000
  | Found free-atom valence shell :  2 p   4.000
  | No ionic wave fns used. Skipping ion_occ.
  | No ionic wave fns used. Skipping ion_occ.
  | Found hydrogenic basis function :  2 p   1.800
  | Found hydrogenic basis function :  3 d   7.600
  | Found hydrogenic basis function :  3 s   6.400
 | Encountered keyword species, ending the description of species O                   .
  Species O                   : Missing cutoff potential type.
  Defaulting to exp(1/x)/(1-x)^2 type cutoff potential.
  Species O : No 'logarithmic' tag. Using default grid for free atom:
  | Default logarithmic grid data [bohr] : 0.1000E-03 0.1000E+03 0.1012E+01
  Species O : On-site basis accuracy parameter (for Gram-Schmidt orthonormalisation) not specified.
  Using default value basis_acc =  0.1000000E-03.
  Species O                   : Using default innermost maximum threshold i_radial=  2 for radial functions.
  Species O                   : Default cutoff onset for free atom density etc. : 0.35000000E+01 AA.
  Species O                   : Basic radial grid will be enhanced according to radial_multiplier =   1, to contain    36 grid points.

  Reading configuration options for species H                   .
  | Found nuclear charge :   1.0000
  | Found atomic mass :    1.0079400000000001      amu
  | Found l_max for Hartree potential  :   4
  | Found cutoff potl. onset [A], width [A], scale factor :    3.50000    1.50000    1.00000
  | Threshold for basis-dependent cutoff potential is   0.100000E-03
  | Found data for basic radial integration grid :    24 points, outermost radius =    5.000 A
  | Found multiplier for basic radial grid :   1
  | Found angular grid specification: user-specified.
  | Specified grid contains     5 separate shells.
  | Check grid settings after all constraints further below.
  | Found free-atom valence shell :  1 s   1.000
  | No ionic wave fns used. Skipping ion_occ.
  | Found hydrogenic basis function :  2 s   2.100
  | Found hydrogenic basis function :  2 p   3.500
  Species H                   : Missing cutoff potential type.
  Defaulting to exp(1/x)/(1-x)^2 type cutoff potential.
  Species H : No 'logarithmic' tag. Using default grid for free atom:
  | Default logarithmic grid data [bohr] : 0.1000E-03 0.1000E+03 0.1012E+01
  Species H : On-site basis accuracy parameter (for Gram-Schmidt orthonormalisation) not specified.
  Using default value basis_acc =  0.1000000E-03.
  Species H                   : Using default innermost maximum threshold i_radial=  2 for radial functions.
  Species H                   : Default cutoff onset for free atom density etc. : 0.35000000E+01 AA.
  Species H                   : Basic radial grid will be enhanced according to radial_multiplier =   1, to contain    24 grid points.

  Finished reading input file 'control.in'.

------------------------------------------------------------


------------------------------------------------------------
          Reading geometry description geometry.in.
------------------------------------------------------------
  | The smallest distance between any two atoms is         1.03675072 AA.
  | The first atom of this pair is atom number                      1 .
  | The second atom of this pair is atom number                     2 .
  Input structure read successfully.
  The structure contains        3 atoms,  and a total of         10.000 electrons.

  Input geometry:
  | No unit cell requested.
  | Atomic structure:
  |       Atom                x [A]            y [A]            z [A]
  |    1: Species O             0.00000000       -0.07320103       -0.00000000
  |    2: Species H             0.76731112       -0.77039949       -0.00000000
  |    3: Species H            -0.76731112       -0.77039949       -0.00000000

  Slab Identifier: This is not a periodic structure.

  Finished reading input file 'geometry.in'.



  Consistency checks for stacksize environment parameter are next.

  | Maximum stacksize for task 0: unlimited
  | Maximum stacksize for task 1: unlimited
  | Maximum stacksize for task 2: unlimited
  | Maximum stacksize for task 3: unlimited
  | Current stacksize for task 0: unlimited
  | Current stacksize for task 1: unlimited
  | Current stacksize for task 2: unlimited
  | Current stacksize for task 3: unlimited

  Consistency checks for the contents of control.in are next.

  MPI_IN_PLACE appears to work with this MPI implementation.
  | Keeping use_mpi_in_place .true. (see manual).
  Target number of points in a grid batch is not set. Defaulting to  100
  Method for grid partitioning is not set. Defaulting to parallel hash+maxmin partitioning.
  Batch size limit is not set. Defaulting to    200
  By default, will store active basis functions for each batch.
  If in need of memory, prune_basis_once .false. can be used to disable this option.
  communication_type for Hartree potential was not specified.
  Defaulting to calc_hartree .
  Defaulting to Pulay charge density mixer.
  Pulay mixer: Number of relevant iterations not set.
  Defaulting to    8 iterations.
  Pulay mixer: Number of initial linear mixing iterations not set.
  Defaulting to    0 iterations.
  Work space size for distributed Hartree potential not set.
  Defaulting to   0.200000E+03 MB.
  Mixing parameter for charge density mixing has not been set.
  Using default: charge_mix_param =     0.0500.
  The mixing parameter will be adjusted in iteration number     2 of the first full s.c.f. cycle only.
  Algorithm-dependent basis array size parameters:
  | n_max_pulay                         :        8
  Maximum number of self-consistency iterations not provided.
  Presetting  1000 iterations.
  Presetting      1001 iterations before the initial mixing cycle
  is restarted anyway using the sc_init_iter criterion / keyword.
  Presetting a factor      1.000 between actual scf density residual
  and density convergence criterion sc_accuracy_rho below which sc_init_iter
  takes no effect.
  No maximum number of relaxation steps, defaulting to     1000
  Default initial Hessian is Lindh matrix (thres = 15.00) plus  0.200000E+01 eV/A^2 times unity.
  No maximum energy tolerance for TRM/BFGS moves, defaulting to   0.150000E-02
  Maximum energy tolerance by which TRM/BFGS trajectory may increase over multiple steps:   0.300000E-02
  No harmonic length scale. Defaulting to   0.250000E-01 A.
  No trust radius initializer. Defaulting to   0.200000E+00 A.
  Forces evaluation will include force correction term due to incomplete self-consistency (default).
  Handling of forces: Unphysical translation and rotation will be removed from forces.
  No accuracy limit for integral partition fn. given. Defaulting to  0.1000E-14.
  No threshold value for u(r) in integrations given. Defaulting to  0.1000E-05.
  No occupation type (smearing scheme) given. Defaulting to Gaussian broadening, width =  0.1000E-01 eV.
  The width will be adjusted in iteration number     2 of the first full s.c.f. cycle only.
  S.C.F. convergence parameters will be adjusted in iteration number     2 of the first full s.c.f. cycle only.
  No accuracy for occupation numbers given. Defaulting to  0.1000E-12.
  No threshold value for occupation numbers given. Defaulting to  0.0000E+00.
  No accuracy for fermi level given. Defaulting to  0.1000E-19.
  Maximum # of iterations to find E_F not set. Defaulting to  200.
  Preferred method for the eigenvalue solver ('KS_method') not specified in 'control.in'.
  Calling BLACS routine to test compilation state
  Since ScaLAPACK support is enabled, defaulting to ELPA (via ELSI).
  Will not use alltoall communication since running on < 1024 CPUs.
  Threshold for basis singularities not set.
  Default threshold for basis singularities:  0.1000E-04
  partition_type (choice of integration weights) for integrals was not specified.
  | Using a version of the partition function of Stratmann and coworkers ('stratmann_sparse').
  | At each grid point, the set of atoms used to build the partition table is smoothly restricted to
  | only those atoms whose free-atom density would be non-zero at that grid point.
  Partitioning for Hartree potential was not defined. Using partition_type for integrals.
  | Adjusted default value of keyword multip_moments_threshold to:       0.10000000E-11
  | This value may affect high angular momentum components of the Hartree potential in periodic systems.
  Spin handling was not defined in control.in. Defaulting to unpolarized case.
  No q(lm)/r^(l+1) cutoff set for long-range Hartree potential.
  | Using default value of  0.100000E-09 .
  | Verify using the multipole_threshold keyword.
  Defaulting to new monopole extrapolation.
  Density update method: automatic selection selected.
  Geometry relaxation: A file "geometry.in.next_step" is written out by default after each step.
  | This file contains the geometry of the current relaxation step as well as
  | the current Hessian matrix needed to restart the relaxation algorithm.
  | If you do not want part or all of this information, use the keywords
  | "write_restart_geometry" or "hessian_to_restart_geometry" to switch the output off.
  Charge integration errors on the 3D integration grid will be compensated
  by explicit normalization and distribution of residual charges.
  Use the "compensate_multipole_errors" flag to change this behaviour.
  Set 'collect_eigenvectors' to be '.true.' for use_density_matrix .false.

  Consistency checks for the contents of geometry.in are next.

 * Warning! You did not set the 'relativistic' flag in input file 'control.in'.
 * FHI-aims will default to 'relativistic atomic_zora scalar'.
 * You must ensure that this is really what you want!!
 * For example, DO NOT compute total-energy differences between results from
 * different settings of the 'relativistic' flag.
  Number of empty states per atom not set in control.in - providing a guess from actual geometry.
  | Total number of empty states used during s.c.f. cycle:        6
  If you use a very high smearing, use empty_states (per atom!) in control.in to increase this value.

  Structure-dependent array size parameters: 
  | Maximum number of distinct radial functions  :        9
  | Maximum number of basis functions            :       24
  | Number of Kohn-Sham states (occupied + empty):       11
------------------------------------------------------------
  After read_input_data [GB]:     52.56

  Performing system and environment tests:
  *** Environment variable OMP_NUM_THREADS is not set
  *** For performance reasons you might want to set it to 1
  | Checking for ScaLAPACK...
  | Testing pdtran()...
  | All pdtran() tests passed.
  After prepare_system [GB]:     52.56

------------------------------------------------------------
          Preparing all fixed parts of the calculation.
------------------------------------------------------------
  Determining machine precision:
     2.2250738585072014E-308
  Setting up grids for atomic and cluster calculations.

  Creating wave function, potential, and density for free atoms.
  Runtime choices for atomic solver:
  | atomic solver xc        : PBE
  | compute density gradient: 1
  | compute kinetic density : F

  Species: O

  List of occupied orbitals and eigenvalues:
    n    l              occ      energy [Ha]    energy [eV]
    1    0           2.0000       -18.926989      -515.0296
    2    0           2.0000        -0.880247       -23.9527
    2    1           4.0000        -0.331514        -9.0210


  Species: H

  List of occupied orbitals and eigenvalues:
    n    l              occ      energy [Ha]    energy [eV]
    1    0           1.0000        -0.237593        -6.4652


  Adding cutoff potential to free-atom effective potential.
  Creating fixed part of basis set: Ionic, confined, hydrogenic.

  O                    hydrogenic:

  List of hydrogenic basis orbitals: 
    n    l      effective z      eigenvalue [eV]  inner max. [A]     outer max. [A]     outer radius [A]   
    2    1         1.800000       -10.9749           1.164242           1.164242           4.578029
    3    2         7.600000       -87.3180           0.624125           0.624125           3.251020
    3    0         6.400000       -61.9207           0.061167           1.081902           4.001998


  H                    hydrogenic:

  List of hydrogenic basis orbitals: 
    n    l      effective z      eigenvalue [eV]  inner max. [A]     outer max. [A]     outer radius [A]   
    2    0         2.100000       -14.9728           0.193243           1.317208           4.583499
    2    1         3.500000       -41.6669           0.602369           0.602369           3.723403

  Creating atomic-like basis functions for current effective potential.

  Species O                   :

  List of atomic basis orbitals and eigenvalues:
    n    l      energy [Ha]    energy [eV]    outer radius [A]
    1    0       -18.926989      -515.0296       1.415765
    2    0        -0.880247       -23.9527       4.413171
    2    1        -0.331514        -9.0210       4.522403


  Species H                   :

  List of atomic basis orbitals and eigenvalues:
    n    l      energy [Ha]    energy [eV]    outer radius [A]
    1    0        -0.237593        -6.4652       4.527807

  Assembling full basis from fixed parts.
  | Species O :   atomic orbital   1 s accepted.
  | Species O :    hydro orbital   3 s accepted.
  | Species O :   atomic orbital   2 s accepted.
  | Species O :   atomic orbital   2 p accepted.
  | Species O :    hydro orbital   2 p accepted.
  | Species O :    hydro orbital   3 d accepted.
  | Species H :   atomic orbital   1 s accepted.
  | Species H :    hydro orbital   2 s accepted.
  | Species H :    hydro orbital   2 p accepted.

  Basis size parameters after reduction:
  | Total number of radial functions:        9
  | Total number of basis functions :       24

  Per-task memory consumption for arrays in subroutine allocate_ext:
  |           2.998708MB.
  Testing on-site integration grid accuracy.
  |  Species  Function  <phi|h_atom|phi> (log., in eV)  <phi|h_atom|phi> (rad., in eV)
           1        1               -515.0295626295               -515.0294562738
           1        2                 15.1698434419                 15.1699322204
           1        3                -21.6038822678                -21.6039118105
           1        4                 -9.0211123393                 -9.0212703513
           1        5                  8.3047696391                  8.2854840999
           1        6                 45.8428042125                 45.8427461222
           2        7                 -6.4664147733                 -6.4652229287
           2        8                 13.7099062243                 13.7158503352
           2        9                 25.2661739479                 25.2663166526

  Preparing densities etc. for the partition functions (integrals / Hartree potential).

  Preparations completed.
  max(cpu_time)          :      0.087 s.
  Wall clock time (cpu1) :      0.087 s.
------------------------------------------------------------
  After prepare_scf [GB]:     52.45

  Initializing index lists of integration centers etc. from given atomic structure:
  | Number of centers in hartree potential         :         3
  | Number of centers in hartree multipole         :         3
  | Number of centers in electron density summation:         3
  | Number of centers in basis integrals           :         3
  | Number of centers in integrals                 :         3
  | Number of centers in hamiltonian               :         3
  After initialize_bc_dependent_lists [GB]:     52.51

------------------------------------------------------------
          Begin self-consistency loop: Initialization.

          Date     :  20240501, Time     :  175646.561
------------------------------------------------------------

  Initializing relaxation algorithms.
  Finished initialization of distributed Hessian storage.
  | Global dimension:         9
  | BLACS block size:         3
  | Number of workers:        3

  Available memory per node after initialize_hartree_non_periodic_ewald [GB]:     52.51
  Available memory per node after initialize_recip_hartree_potential [GB]:     52.51
  * Using 4 tasks for Scalapack Eigenvalue solver.
  Detailed listing of tasks and assigned k-points:
  (for non-periodic systems, the "k-point" denotes an internal label only)
   Task     0 k-point     1 on arch
   Task     1 k-point     1 on arch
   Task     2 k-point     1 on arch
   Task     3 k-point     1 on arch
  Tasks:     4 split into      2 X      2 BLACS grid
  Calculating block size based on n_basis =           24  max_nprow =            2  max_npcol =            2
  ScaLAPACK block size set to:            8
  Allocating        0.002 MB for ovlp
  Allocating        0.002 MB for ham
  Allocating        0.002 MB for eigenvec
  Required Scalapack workspace - INTEGER:            1  REAL:             1
  Available memory per node after initialize_scalapack [GB]:     52.51
  Available memory per node after aims_elsi_init_scf [GB]:     52.51
  Available memory per node after initialize_fixed_grids [GB]:     52.51
  Partitioning the integration grid into batches with parallel hashing+maxmin method.
  | Number of batches:      248
  | Maximal batch size:     101
  | Minimal batch size:      49
  | Average batch size:      64.210
  | Standard deviation of batch sizes:       9.277

  Integration load balanced across     4 MPI tasks.
  Work distribution over tasks is as follows:
  Task     0 has       4007 integration points.
  Task     1 has       3986 integration points.
  Task     2 has       3985 integration points.
  Task     3 has       3946 integration points.
  Available memory per node after partition_grid [GB]:     52.51
  Initializing partition tables, free-atom densities, potentials, etc. across the integration grid (initialize_grid_storage).
  | initialize_grid_storage: Actual outermost partition radius vs. multipole_radius_free
  | (-- VB: in principle, multipole_radius_free should be larger, hence this output)
  | Species        1: Confinement radius =              4.999999999999999 AA, multipole_radius_free =              5.048384829883283 AA.
  | Species        1: outer_partition_radius set to              5.048384829883283 AA .
  | Species        2: Confinement radius =              4.999999999999999 AA, multipole_radius_free =              5.054417573612229 AA.
  | Species        2: outer_partition_radius set to              5.054417573612229 AA .
  | The sparse table of interatomic distances needs          0.09 kbyte instead of         0.07 kbyte of memory.
  | Using the partition_type stratmann_smoother will reduce your memory usage.
  | Net number of integration points:    15924
  | of which are non-zero points    :    14602
  Available memory per node after initialize_grid_storage_p1 [GB]:     52.51
  Renormalizing the initial density to the exact electron count on the 3D integration grid.
  | Initial density: Formal number of electrons (from input files) :      10.0000000000
  | Integrated number of electrons on 3D grid     :       9.9999984933
  | Charge integration error                      :      -0.0000015067
  | Normalization factor for density and gradient :       1.0000001507
  Renormalizing the free-atom superposition density to the exact electron count on the 3D integration grid.
  | Formal number of electrons (from input files) :      10.0000000000
  | Integrated number of electrons on 3D grid     :       9.9999984933
  | Charge integration error                      :      -0.0000015067
  | Normalization factor for density and gradient :       1.0000001507
  Obtaining max. number of non-zero basis functions in each batch (get_n_compute_maxes).
  | Maximal number of non-zero basis functions:       24 in task     0
  | Maximal number of non-zero basis functions:       24 in task     1
  | Maximal number of non-zero basis functions:       24 in task     2
  | Maximal number of non-zero basis functions:       24 in task     3
  Selecting the method for density update.
  Loop over occupied states selected for charge density update.
  Available memory per node after get_n_compute_maxes_p1 [GB]:     52.51
  Allocating        0.002 MB for KS_eigenvector
  Available memory per node after allocate_matrices [GB]:     52.51
  Available memory per node after init_comm_sparse_local_matrix_scalapack [GB]:     52.51
  Integrating Hamiltonian matrix: batch-based integration.
  Time summed over all CPUs for integration: real work        0.045 s, elapsed        0.046 s
  Available memory per node after integrate hamiltonian matrix [GB]:     52.51
  Integrating overlap matrix.
  Time summed over all CPUs for integration: real work        0.018 s, elapsed        0.018 s
  Available memory per node after integrate ovlp matrix [GB]:     52.51
  Available memory per node after ASI_callbacks invoke [GB]:     52.51
  Deallocating overlap matrix.
  Available memory per node after save_overlap_scalapack [GB]:     52.51

  Updating Kohn-Sham eigenvalues and eigenvectors using ELSI and the ELPA eigensolver.
  Overlap matrix is not singular
  | Lowest and highest eigenvalues :  0.2234E-01,  0.2699E+01
  Finished singularity check of overlap matrix
  | Time :     0.000 s
  Starting ELPA eigensolver
  Finished Cholesky decomposition
  | Time :     0.000 s
  Finished transformation to standard eigenproblem
  | Time :     0.000 s
  Finished solving standard eigenproblem
  | Time :     0.000 s
  Finished back-transformation of eigenvectors
  | Time :     0.000 s

  Obtaining occupation numbers and electronic chemical potential using ELSI.
  | Note that, for insulating systems, the printed 'chemical potential' value is not uniquely defined.
  | It can be anywhere in the energy gap, as long as it correctly separates occupied and unoccupied states.
  | In systems with a gap, the physically relevant chemical potential is the VBM or HOMO.

  | Chemical potential (Fermi level):    -2.39763336 eV
  Available memory per node after advance_KS_solution [GB]:     52.51
  Writing Kohn-Sham eigenvalues.

  State    Occupation    Eigenvalue [Ha]    Eigenvalue [eV]
      1       2.00000         -19.009144         -517.26512
      2       2.00000          -1.057513          -28.77641
      3       2.00000          -0.570022          -15.51108
      4       2.00000          -0.500757          -13.62628
      5       2.00000          -0.417081          -11.34936
      6       0.00000          -0.063693           -1.73318
      7       0.00000           0.008275            0.22518
      8       0.00000           0.219785            5.98066
      9       0.00000           0.255401            6.94982
     10       0.00000           0.309165            8.41281
     11       0.00000           0.522244           14.21100

  Highest occupied state (VBM) at    -11.34936188 eV
  | Occupation number:      2.00000000

  Lowest unoccupied state (CBM) at    -1.73318236 eV
  | Occupation number:      0.00000000

  Overall HOMO-LUMO gap:      9.61617952 eV.
  Calculating total energy contributions from superposition of free atom densities.

  Total energy components:
  | Sum of eigenvalues            :         -43.10903391 Ha       -1173.05649707 eV
  | XC energy correction          :          -8.99651706 Ha        -244.80768501 eV
  | XC potential correction       :          11.56599367 Ha         314.72670100 eV
  | Free-atom electrostatic energy:         -35.98666016 Ha        -979.24684659 eV
  | Hartree energy correction     :          -0.00000000 Ha          -0.00000000 eV
  | Entropy correction            :          -0.00000000 Ha          -0.00000000 eV
  | ---------------------------
  | Total energy                  :         -76.52621746 Ha       -2082.38432767 eV
  | Total energy, T -> 0          :         -76.52621746 Ha       -2082.38432767 eV  <-- do not rely on this value for anything but (periodic) metals
  | Electronic free energy        :         -76.52621746 Ha       -2082.38432767 eV

  Derived energy quantities:
  | Kinetic energy                :          75.69239349 Ha        2059.69482300 eV
  | Electrostatic energy          :        -143.22209389 Ha       -3897.27146566 eV
  | Energy correction for multipole
  | error in Hartree potential    :           0.00000000 Ha           0.00000000 eV
  | Sum of eigenvalues per atom                           :        -391.01883236 eV
  | Total energy (T->0) per atom                          :        -694.12810922 eV  <-- do not rely on this value for anything but (periodic) metals
  | Electronic free energy per atom                       :        -694.12810922 eV
  Initialize hartree_potential_storage
  Max. number of atoms included in rho_multipole:            3

  End scf initialization - timings             :  max(cpu_time)    wall_clock(cpu1)
  | Time for scf. initialization                :        0.038 s           0.038 s
  | Boundary condition initialization           :        0.008 s           0.007 s
  | Relaxation initialization                   :        0.000 s           0.001 s
  | Integration                                 :        0.016 s           0.016 s
  | Solution of K.-S. eqns.                     :        0.001 s           0.001 s
  | Grid partitioning                           :        0.006 s           0.006 s
  | Preloading free-atom quantities on grid     :        0.010 s           0.011 s
  | Free-atom superposition energy              :        0.004 s           0.003 s
  | Total energy evaluation                     :        0.000 s           0.000 s

  Partial memory accounting:
  | Current value for overall tracked memory usage:
  |   Minimum:        0.012 MB (on task 3)
  |   Maximum:        0.017 MB (on task 0)
  |   Average:        0.014 MB
  | Peak value for overall tracked memory usage:
  |   Minimum:        0.128 MB (on task 3 after allocating grid_partition)
  |   Maximum:        0.162 MB (on task 0 after allocating grid_partition)
  |   Average:        0.147 MB
  | Largest tracked array allocation so far:
  |   Minimum:        0.080 MB (all_coords on task 3)
  |   Maximum:        0.100 MB (all_coords on task 0)
  |   Average:        0.091 MB
  Note:  These values currently only include a subset of arrays which are explicitly tracked.
  The "true" memory usage will be greater.
------------------------------------------------------------
  Available memory after initialize_scf [GB]:     52.51
  Available memory after allocating mixing [GB]:     52.51
  Evaluating new KS density.
  Integration grid: deviation in total charge (<rho> - N_e) =  -1.243450E-14

  Time for density update prior                :  max(cpu_time)    wall_clock(cpu1)
  | self-consistency iterative process          :        0.009 s           0.009 s
  Available memory before start of SCF loop [GB]:     52.51

------------------------------------------------------------
          Begin self-consistency iteration #    1

  Date     :  20240501, Time     :  175646.609
------------------------------------------------------------
  Pulay mixing of updated and previous charge densities.
  Available memory per node after mixing [GB]:     52.51
  Renormalizing the density to the exact electron count on the 3D integration grid.
  | Formal number of electrons (from input files) :      10.0000000000
  | Integrated number of electrons on 3D grid     :      10.0000000000
  | Charge integration error                      :      -0.0000000000
  | Normalization factor for density and gradient :       1.0000000000

  Evaluating partitioned Hartree potential by multipole expansion.
  | Original multipole sum: apparent total charge =  -0.899970E-14
  | Sum of charges compensated after spline to logarithmic grids =   0.118369E-04
  | Analytical far-field extrapolation by fixed multipoles:
  | Hartree multipole sum: apparent total charge =  -0.889516E-14
  Summing up the Hartree potential.
  Time summed over all CPUs for potential: real work        0.006 s, elapsed        0.006 s
  | RMS charge density error from multipole expansion :   0.312399E-03

  Integrating Hamiltonian matrix: batch-based integration.
  Time summed over all CPUs for integration: real work        0.045 s, elapsed        0.045 s

  Updating Kohn-Sham eigenvalues and eigenvectors using ELSI and the ELPA eigensolver.
  Starting ELPA eigensolver
  Finished transformation to standard eigenproblem
  | Time :     0.000 s
  Finished solving standard eigenproblem
  | Time :     0.000 s
  Finished back-transformation of eigenvectors
  | Time :     0.000 s

  Obtaining occupation numbers and electronic chemical potential using ELSI.
  | Note that, for insulating systems, the printed 'chemical potential' value is not uniquely defined.
  | It can be anywhere in the energy gap, as long as it correctly separates occupied and unoccupied states.
  | In systems with a gap, the physically relevant chemical potential is the VBM or HOMO.

  | Chemical potential (Fermi level):    -2.25096084 eV
  Writing Kohn-Sham eigenvalues.

  State    Occupation    Eigenvalue [Ha]    Eigenvalue [eV]
      1       2.00000         -18.972575         -516.27004
      2       2.00000          -1.039564          -28.28797
      3       2.00000          -0.554862          -15.09856
      4       2.00000          -0.482807          -13.13786
      5       2.00000          -0.397762          -10.82367
      6       0.00000          -0.059176           -1.61025
      7       0.00000           0.014352            0.39054
      8       0.00000           0.228211            6.20995
      9       0.00000           0.264121            7.18709
     10       0.00000           0.315117            8.57476
     11       0.00000           0.526629           14.33030

  Highest occupied state (VBM) at    -10.82366824 eV
  | Occupation number:      2.00000000

  Lowest unoccupied state (CBM) at    -1.61025316 eV
  | Occupation number:      0.00000000

  Overall HOMO-LUMO gap:      9.21341509 eV.

  Total energy components:
  | Sum of eigenvalues            :         -42.89514157 Ha       -1167.23619052 eV
  | XC energy correction          :          -9.02003842 Ha        -245.44773366 eV
  | XC potential correction       :          11.59684742 Ha         315.56627417 eV
  | Free-atom electrostatic energy:         -35.98666016 Ha        -979.24684659 eV
  | Hartree energy correction     :          -0.20543955 Ha          -5.59029466 eV
  | Entropy correction            :          -0.00000000 Ha          -0.00000000 eV
  | ---------------------------
  | Total energy                  :         -76.51043229 Ha       -2081.95479126 eV
  | Total energy, T -> 0          :         -76.51043229 Ha       -2081.95479126 eV  <-- do not rely on this value for anything but (periodic) metals
  | Electronic free energy        :         -76.51043229 Ha       -2081.95479126 eV

  Derived energy quantities:
  | Kinetic energy                :          75.83232962 Ha        2063.50267884 eV
  | Electrostatic energy          :        -143.32272349 Ha       -3900.00973644 eV
  | Energy correction for multipole
  | error in Hartree potential    :           0.00008654 Ha           0.00235500 eV
  | Sum of eigenvalues per atom                           :        -389.07873017 eV
  | Total energy (T->0) per atom                          :        -693.98493042 eV  <-- do not rely on this value for anything but (periodic) metals
  | Electronic free energy per atom                       :        -693.98493042 eV
  Evaluating new KS density.
  Integration grid: deviation in total charge (<rho> - N_e) =   1.065814E-14

  Self-consistency convergence accuracy:
  | Change of charge density      :  0.2875E+00
  | Change of unmixed KS density  :  0.9121E+01
  | Change of sum of eigenvalues  :  0.5820E+01 eV
  | Change of total energy        :  0.4295E+00 eV


------------------------------------------------------------
  End self-consistency iteration #     1       :  max(cpu_time)    wall_clock(cpu1)
  | Time for this iteration                     :        0.028 s           0.028 s
  | Charge density update                       :        0.009 s           0.008 s
  | Density mixing                              :        0.000 s           0.000 s
  | Hartree multipole update                    :        0.001 s           0.001 s
  | Hartree multipole summation                 :        0.006 s           0.006 s
  | Integration                                 :        0.011 s           0.012 s
  | Solution of K.-S. eqns.                     :        0.000 s           0.000 s
  | Total energy evaluation                     :        0.000 s           0.001 s

  Partial memory accounting:
  | Current value for overall tracked memory usage:
  |   Minimum:        2.210 MB (on task 3)
  |   Maximum:        2.249 MB (on task 0)
  |   Average:        2.232 MB
  | Peak value for overall tracked memory usage:
  |   Minimum:        2.284 MB (on task 3 after allocating gradient_basis_wave)
  |   Maximum:        2.323 MB (on task 0 after allocating gradient_basis_wave)
  |   Average:        2.306 MB
  | Largest tracked array allocation so far:
  |   Minimum:        0.723 MB (previous_rho_gradient_diff on task 3)
  |   Maximum:        0.734 MB (previous_rho_gradient_diff on task 0)
  |   Average:        0.729 MB
  Note:  These values currently only include a subset of arrays which are explicitly tracked.
  The "true" memory usage will be greater.
------------------------------------------------------------

------------------------------------------------------------
          Begin self-consistency iteration #    2

  Date     :  20240501, Time     :  175646.637
------------------------------------------------------------
  Pulay mixing of updated and previous charge densities.
  Available memory per node after mixing [GB]:     52.50
  Renormalizing the density to the exact electron count on the 3D integration grid.
  | Formal number of electrons (from input files) :      10.0000000000
  | Integrated number of electrons on 3D grid     :      10.0000000000
  | Charge integration error                      :       0.0000000000
  | Normalization factor for density and gradient :       1.0000000000

  Evaluating partitioned Hartree potential by multipole expansion.
  | Original multipole sum: apparent total charge =  -0.633392E-14
  | Sum of charges compensated after spline to logarithmic grids =   0.776191E-04
  | Analytical far-field extrapolation by fixed multipoles:
  | Hartree multipole sum: apparent total charge =  -0.632162E-14
  Summing up the Hartree potential.
  Time summed over all CPUs for potential: real work        0.006 s, elapsed        0.006 s
  | RMS charge density error from multipole expansion :   0.206205E-02

  Integrating Hamiltonian matrix: batch-based integration.
  Time summed over all CPUs for integration: real work        0.045 s, elapsed        0.045 s

  Updating Kohn-Sham eigenvalues and eigenvectors using ELSI and the ELPA eigensolver.
  Starting ELPA eigensolver
  Finished transformation to standard eigenproblem
  | Time :     0.000 s
  Finished solving standard eigenproblem
  | Time :     0.000 s
  Finished back-transformation of eigenvectors
  | Time :     0.000 s

  Obtaining occupation numbers and electronic chemical potential using ELSI.
  | Note that, for insulating systems, the printed 'chemical potential' value is not uniquely defined.
  | It can be anywhere in the energy gap, as long as it correctly separates occupied and unoccupied states.
  | In systems with a gap, the physically relevant chemical potential is the VBM or HOMO.

  | Chemical potential (Fermi level):    -1.44413919 eV
  Highest occupied state (VBM) at     -8.12143406 eV
  | Occupation number:      2.00000000

  Lowest unoccupied state (CBM) at    -0.91650422 eV
  | Occupation number:      0.00000000

  Overall HOMO-LUMO gap:      7.20492985 eV.

  Checking to see if s.c.f. parameters should be adjusted.
  The system likely has a gap. Increased the default Pulay mixing parameter (charge_mix_param). Value:   0.200000 .
  Kept the default occupation width. Value:   0.010000 eV.

  Total energy components:
  | Sum of eigenvalues            :         -41.79576600 Ha       -1137.32065900 eV
  | XC energy correction          :          -9.14651714 Ha        -248.88939481 eV
  | XC potential correction       :          11.76274032 Ha         320.08044951 eV
  | Free-atom electrostatic energy:         -35.98666016 Ha        -979.24684659 eV
  | Hartree energy correction     :          -1.30048195 Ha         -35.38791443 eV
  | Entropy correction            :          -0.00000000 Ha          -0.00000000 eV
  | ---------------------------
  | Total energy                  :         -76.46668494 Ha       -2080.76436532 eV
  | Total energy, T -> 0          :         -76.46668494 Ha       -2080.76436532 eV  <-- do not rely on this value for anything but (periodic) metals
  | Electronic free energy        :         -76.46668494 Ha       -2080.76436532 eV

  Derived energy quantities:
  | Kinetic energy                :          76.48676900 Ha        2081.31088050 eV
  | Electrostatic energy          :        -143.80693680 Ha       -3913.18585101 eV
  | Energy correction for multipole
  | error in Hartree potential    :           0.00036717 Ha           0.00999128 eV
  | Sum of eigenvalues per atom                           :        -379.10688633 eV
  | Total energy (T->0) per atom                          :        -693.58812177 eV  <-- do not rely on this value for anything but (periodic) metals
  | Electronic free energy per atom                       :        -693.58812177 eV
  Evaluating new KS density.
  Integration grid: deviation in total charge (<rho> - N_e) =   5.329071E-15

  Self-consistency convergence accuracy:
  | Change of charge density      :  0.2504E+00
  | Change of unmixed KS density  :  0.3015E-01
  | Change of sum of eigenvalues  :  0.2992E+02 eV
  | Change of total energy        :  0.1190E+01 eV


------------------------------------------------------------
  End self-consistency iteration #     2       :  max(cpu_time)    wall_clock(cpu1)
  | Time for this iteration                     :        0.028 s           0.029 s
  | Charge density update                       :        0.009 s           0.009 s
  | Density mixing                              :        0.001 s           0.001 s
  | Hartree multipole update                    :        0.001 s           0.001 s
  | Hartree multipole summation                 :        0.006 s           0.006 s
  | Integration                                 :        0.011 s           0.011 s
  | Solution of K.-S. eqns.                     :        0.000 s           0.001 s
  | Total energy evaluation                     :        0.000 s           0.000 s

  Partial memory accounting:
  | Current value for overall tracked memory usage:
  |   Minimum:        2.211 MB (on task 3)
  |   Maximum:        2.250 MB (on task 0)
  |   Average:        2.233 MB
  | Peak value for overall tracked memory usage:
  |   Minimum:        2.285 MB (on task 3 after allocating gradient_basis_wave)
  |   Maximum:        2.324 MB (on task 0 after allocating gradient_basis_wave)
  |   Average:        2.307 MB
  | Largest tracked array allocation so far:
  |   Minimum:        0.723 MB (previous_rho_gradient_diff on task 3)
  |   Maximum:        0.734 MB (previous_rho_gradient_diff on task 0)
  |   Average:        0.729 MB
  Note:  These values currently only include a subset of arrays which are explicitly tracked.
  The "true" memory usage will be greater.
------------------------------------------------------------

------------------------------------------------------------
          Begin self-consistency iteration #    3

  Date     :  20240501, Time     :  175646.666
------------------------------------------------------------
  Pulay mixing of updated and previous charge densities.
  Available memory per node after mixing [GB]:     52.50
  Renormalizing the density to the exact electron count on the 3D integration grid.
  | Formal number of electrons (from input files) :      10.0000000000
  | Integrated number of electrons on 3D grid     :      10.0000000000
  | Charge integration error                      :       0.0000000000
  | Normalization factor for density and gradient :       1.0000000000

  Evaluating partitioned Hartree potential by multipole expansion.
  | Original multipole sum: apparent total charge =  -0.305012E-14
  | Sum of charges compensated after spline to logarithmic grids =   0.661551E-04
  | Analytical far-field extrapolation by fixed multipoles:
  | Hartree multipole sum: apparent total charge =  -0.306242E-14
  Summing up the Hartree potential.
  Time summed over all CPUs for potential: real work        0.006 s, elapsed        0.006 s
  | RMS charge density error from multipole expansion :   0.365280E-02

  Integrating Hamiltonian matrix: batch-based integration.
  Time summed over all CPUs for integration: real work        0.045 s, elapsed        0.045 s

  Updating Kohn-Sham eigenvalues and eigenvectors using ELSI and the ELPA eigensolver.
  Starting ELPA eigensolver
  Finished transformation to standard eigenproblem
  | Time :     0.001 s
  Finished solving standard eigenproblem
  | Time :     0.000 s
  Finished back-transformation of eigenvectors
  | Time :     0.000 s

  Obtaining occupation numbers and electronic chemical potential using ELSI.
  | Note that, for insulating systems, the printed 'chemical potential' value is not uniquely defined.
  | It can be anywhere in the energy gap, as long as it correctly separates occupied and unoccupied states.
  | In systems with a gap, the physically relevant chemical potential is the VBM or HOMO.

  | Chemical potential (Fermi level):    -1.59237386 eV
  Highest occupied state (VBM) at     -9.08880314 eV
  | Occupation number:      2.00000000

  Lowest unoccupied state (CBM) at    -1.07381206 eV
  | Occupation number:      0.00000000

  Overall HOMO-LUMO gap:      8.01499108 eV.

  Total energy components:
  | Sum of eigenvalues            :         -42.30598978 Ha       -1151.20455460 eV
  | XC energy correction          :          -9.08657199 Ha        -247.25820423 eV
  | XC potential correction       :          11.68369306 Ha         317.92946419 eV
  | Free-atom electrostatic energy:         -35.98666016 Ha        -979.24684659 eV
  | Hartree energy correction     :          -0.78246423 Ha         -21.29193504 eV
  | Entropy correction            :          -0.00000000 Ha          -0.00000000 eV
  | ---------------------------
  | Total energy                  :         -76.47799311 Ha       -2081.07207627 eV
  | Total energy, T -> 0          :         -76.47799311 Ha       -2081.07207627 eV  <-- do not rely on this value for anything but (periodic) metals
  | Electronic free energy        :         -76.47799311 Ha       -2081.07207627 eV

  Derived energy quantities:
  | Kinetic energy                :          75.87526333 Ha        2064.67096463 eV
  | Electrostatic energy          :        -143.26668445 Ha       -3898.48483667 eV
  | Energy correction for multipole
  | error in Hartree potential    :          -0.00161660 Ha          -0.04399000 eV
  | Sum of eigenvalues per atom                           :        -383.73485153 eV
  | Total energy (T->0) per atom                          :        -693.69069209 eV  <-- do not rely on this value for anything but (periodic) metals
  | Electronic free energy per atom                       :        -693.69069209 eV
  Evaluating new KS density.
  Integration grid: deviation in total charge (<rho> - N_e) =  -3.552714E-15

  Self-consistency convergence accuracy:
  | Change of charge density      :  0.1209E+00
  | Change of unmixed KS density  :  0.1665E+00
  | Change of sum of eigenvalues  : -0.1388E+02 eV
  | Change of total energy        : -0.3077E+00 eV


------------------------------------------------------------
  End self-consistency iteration #     3       :  max(cpu_time)    wall_clock(cpu1)
  | Time for this iteration                     :        0.029 s           0.029 s
  | Charge density update                       :        0.009 s           0.009 s
  | Density mixing                              :        0.001 s           0.001 s
  | Hartree multipole update                    :        0.001 s           0.001 s
  | Hartree multipole summation                 :        0.006 s           0.006 s
  | Integration                                 :        0.011 s           0.011 s
  | Solution of K.-S. eqns.                     :        0.000 s           0.001 s
  | Total energy evaluation                     :        0.000 s           0.000 s

  Partial memory accounting:
  | Current value for overall tracked memory usage:
  |   Minimum:        2.211 MB (on task 3)
  |   Maximum:        2.250 MB (on task 0)
  |   Average:        2.233 MB
  | Peak value for overall tracked memory usage:
  |   Minimum:        2.285 MB (on task 3 after allocating gradient_basis_wave)
  |   Maximum:        2.324 MB (on task 0 after allocating gradient_basis_wave)
  |   Average:        2.307 MB
  | Largest tracked array allocation so far:
  |   Minimum:        0.723 MB (previous_rho_gradient_diff on task 3)
  |   Maximum:        0.734 MB (previous_rho_gradient_diff on task 0)
  |   Average:        0.729 MB
  Note:  These values currently only include a subset of arrays which are explicitly tracked.
  The "true" memory usage will be greater.
------------------------------------------------------------

------------------------------------------------------------
          Begin self-consistency iteration #    4

  Date     :  20240501, Time     :  175646.695
------------------------------------------------------------
  Pulay mixing of updated and previous charge densities.
  Available memory per node after mixing [GB]:     52.50
  Renormalizing the density to the exact electron count on the 3D integration grid.
  | Formal number of electrons (from input files) :      10.0000000000
  | Integrated number of electrons on 3D grid     :      10.0000000000
  | Charge integration error                      :       0.0000000000
  | Normalization factor for density and gradient :       1.0000000000

  Evaluating partitioned Hartree potential by multipole expansion.
  | Original multipole sum: apparent total charge =  -0.885519E-15
  | Sum of charges compensated after spline to logarithmic grids =   0.118626E-03
  | Analytical far-field extrapolation by fixed multipoles:
  | Hartree multipole sum: apparent total charge =  -0.860921E-15
  Summing up the Hartree potential.
  Time summed over all CPUs for potential: real work        0.006 s, elapsed        0.006 s
  | RMS charge density error from multipole expansion :   0.569416E-02

  Integrating Hamiltonian matrix: batch-based integration.
  Time summed over all CPUs for integration: real work        0.045 s, elapsed        0.045 s

  Updating Kohn-Sham eigenvalues and eigenvectors using ELSI and the ELPA eigensolver.
  Starting ELPA eigensolver
  Finished transformation to standard eigenproblem
  | Time :     0.001 s
  Finished solving standard eigenproblem
  | Time :     0.000 s
  Finished back-transformation of eigenvectors
  | Time :     0.000 s

  Obtaining occupation numbers and electronic chemical potential using ELSI.
  | Note that, for insulating systems, the printed 'chemical potential' value is not uniquely defined.
  | It can be anywhere in the energy gap, as long as it correctly separates occupied and unoccupied states.
  | In systems with a gap, the physically relevant chemical potential is the VBM or HOMO.

  | Chemical potential (Fermi level):    -0.96190686 eV
  Highest occupied state (VBM) at     -7.41693539 eV
  | Occupation number:      2.00000000

  Lowest unoccupied state (CBM) at    -0.55279121 eV
  | Occupation number:      0.00000000

  Overall HOMO-LUMO gap:      6.86414418 eV.

  Total energy components:
  | Sum of eigenvalues            :         -41.67696929 Ha       -1134.08803609 eV
  | XC energy correction          :          -9.16502702 Ha        -249.39307430 eV
  | XC potential correction       :          11.78644867 Ha         320.72558675 eV
  | Free-atom electrostatic energy:         -35.98666016 Ha        -979.24684659 eV
  | Hartree energy correction     :          -1.42037226 Ha         -38.65029560 eV
  | Entropy correction            :          -0.00000000 Ha          -0.00000000 eV
  | ---------------------------
  | Total energy                  :         -76.46258006 Ha       -2080.65266583 eV
  | Total energy, T -> 0          :         -76.46258006 Ha       -2080.65266583 eV  <-- do not rely on this value for anything but (periodic) metals
  | Electronic free energy        :         -76.46258006 Ha       -2080.65266583 eV

  Derived energy quantities:
  | Kinetic energy                :          76.07964035 Ha        2070.23234612 eV
  | Electrostatic energy          :        -143.37719338 Ha       -3901.49193765 eV
  | Energy correction for multipole
  | error in Hartree potential    :          -0.00241902 Ha          -0.06582500 eV
  | Sum of eigenvalues per atom                           :        -378.02934536 eV
  | Total energy (T->0) per atom                          :        -693.55088861 eV  <-- do not rely on this value for anything but (periodic) metals
  | Electronic free energy per atom                       :        -693.55088861 eV
  Evaluating new KS density.
  Integration grid: deviation in total charge (<rho> - N_e) =   1.776357E-15

  Self-consistency convergence accuracy:
  | Change of charge density      :  0.1466E+00
  | Change of unmixed KS density  :  0.9807E-01
  | Change of sum of eigenvalues  :  0.1712E+02 eV
  | Change of total energy        :  0.4194E+00 eV


------------------------------------------------------------
  End self-consistency iteration #     4       :  max(cpu_time)    wall_clock(cpu1)
  | Time for this iteration                     :        0.029 s           0.029 s
  | Charge density update                       :        0.009 s           0.009 s
  | Density mixing                              :        0.001 s           0.001 s
  | Hartree multipole update                    :        0.001 s           0.001 s
  | Hartree multipole summation                 :        0.006 s           0.006 s
  | Integration                                 :        0.011 s           0.011 s
  | Solution of K.-S. eqns.                     :        0.000 s           0.001 s
  | Total energy evaluation                     :        0.000 s           0.000 s

  Partial memory accounting:
  | Current value for overall tracked memory usage:
  |   Minimum:        2.212 MB (on task 3)
  |   Maximum:        2.250 MB (on task 0)
  |   Average:        2.233 MB
  | Peak value for overall tracked memory usage:
  |   Minimum:        2.286 MB (on task 3 after allocating gradient_basis_wave)
  |   Maximum:        2.324 MB (on task 0 after allocating gradient_basis_wave)
  |   Average:        2.307 MB
  | Largest tracked array allocation so far:
  |   Minimum:        0.723 MB (previous_rho_gradient_diff on task 3)
  |   Maximum:        0.734 MB (previous_rho_gradient_diff on task 0)
  |   Average:        0.729 MB
  Note:  These values currently only include a subset of arrays which are explicitly tracked.
  The "true" memory usage will be greater.
------------------------------------------------------------

------------------------------------------------------------
          Begin self-consistency iteration #    5

  Date     :  20240501, Time     :  175646.724
------------------------------------------------------------
  Pulay mixing of updated and previous charge densities.
  Available memory per node after mixing [GB]:     52.50
  Renormalizing the density to the exact electron count on the 3D integration grid.
  | Formal number of electrons (from input files) :      10.0000000000
  | Integrated number of electrons on 3D grid     :      10.0000000000
  | Charge integration error                      :       0.0000000000
  | Normalization factor for density and gradient :       1.0000000000

  Evaluating partitioned Hartree potential by multipole expansion.
  | Original multipole sum: apparent total charge =   0.383725E-14
  | Sum of charges compensated after spline to logarithmic grids =   0.124167E-03
  | Analytical far-field extrapolation by fixed multipoles:
  | Hartree multipole sum: apparent total charge =   0.467357E-14
  Summing up the Hartree potential.
  Time summed over all CPUs for potential: real work        0.006 s, elapsed        0.006 s
  | RMS charge density error from multipole expansion :   0.573426E-02

  Integrating Hamiltonian matrix: batch-based integration.
  Time summed over all CPUs for integration: real work        0.045 s, elapsed        0.045 s

  Updating Kohn-Sham eigenvalues and eigenvectors using ELSI and the ELPA eigensolver.
  Starting ELPA eigensolver
  Finished transformation to standard eigenproblem
  | Time :     0.000 s
  Finished solving standard eigenproblem
  | Time :     0.000 s
  Finished back-transformation of eigenvectors
  | Time :     0.000 s

  Obtaining occupation numbers and electronic chemical potential using ELSI.
  | Note that, for insulating systems, the printed 'chemical potential' value is not uniquely defined.
  | It can be anywhere in the energy gap, as long as it correctly separates occupied and unoccupied states.
  | In systems with a gap, the physically relevant chemical potential is the VBM or HOMO.

  | Chemical potential (Fermi level):    -0.93248307 eV
  Highest occupied state (VBM) at     -7.35563393 eV
  | Occupation number:      2.00000000

  Lowest unoccupied state (CBM) at    -0.52884058 eV
  | Occupation number:      0.00000000

  Overall HOMO-LUMO gap:      6.82679335 eV.

  Total energy components:
  | Sum of eigenvalues            :         -41.65319356 Ha       -1133.44106564 eV
  | XC energy correction          :          -9.16797662 Ha        -249.47333683 eV
  | XC potential correction       :          11.79034182 Ha         320.83152469 eV
  | Free-atom electrostatic energy:         -35.98666016 Ha        -979.24684659 eV
  | Hartree energy correction     :          -1.44491386 Ha         -39.31810653 eV
  | Entropy correction            :          -0.00000000 Ha          -0.00000000 eV
  | ---------------------------
  | Total energy                  :         -76.46240238 Ha       -2080.64783090 eV
  | Total energy, T -> 0          :         -76.46240238 Ha       -2080.64783090 eV  <-- do not rely on this value for anything but (periodic) metals
  | Electronic free energy        :         -76.46240238 Ha       -2080.64783090 eV

  Derived energy quantities:
  | Kinetic energy                :          76.08541930 Ha        2070.38959948 eV
  | Electrostatic energy          :        -143.37984506 Ha       -3901.56409355 eV
  | Energy correction for multipole
  | error in Hartree potential    :          -0.00248852 Ha          -0.06771604 eV
  | Sum of eigenvalues per atom                           :        -377.81368855 eV
  | Total energy (T->0) per atom                          :        -693.54927697 eV  <-- do not rely on this value for anything but (periodic) metals
  | Electronic free energy per atom                       :        -693.54927697 eV
  Evaluating new KS density.
  Integration grid: deviation in total charge (<rho> - N_e) =  -5.329071E-15

  Self-consistency convergence accuracy:
  | Change of charge density      :  0.2804E-01
  | Change of unmixed KS density  :  0.8834E-01
  | Change of sum of eigenvalues  :  0.6470E+00 eV
  | Change of total energy        :  0.4835E-02 eV


------------------------------------------------------------
  End self-consistency iteration #     5       :  max(cpu_time)    wall_clock(cpu1)
  | Time for this iteration                     :        0.029 s           0.029 s
  | Charge density update                       :        0.009 s           0.009 s
  | Density mixing                              :        0.001 s           0.001 s
  | Hartree multipole update                    :        0.001 s           0.001 s
  | Hartree multipole summation                 :        0.006 s           0.006 s
  | Integration                                 :        0.011 s           0.012 s
  | Solution of K.-S. eqns.                     :        0.000 s           0.000 s
  | Total energy evaluation                     :        0.000 s           0.000 s

  Partial memory accounting:
  | Current value for overall tracked memory usage:
  |   Minimum:        2.212 MB (on task 3)
  |   Maximum:        2.251 MB (on task 0)
  |   Average:        2.233 MB
  | Peak value for overall tracked memory usage:
  |   Minimum:        2.286 MB (on task 3 after allocating gradient_basis_wave)
  |   Maximum:        2.325 MB (on task 0 after allocating gradient_basis_wave)
  |   Average:        2.307 MB
  | Largest tracked array allocation so far:
  |   Minimum:        0.723 MB (previous_rho_gradient_diff on task 3)
  |   Maximum:        0.734 MB (previous_rho_gradient_diff on task 0)
  |   Average:        0.729 MB
  Note:  These values currently only include a subset of arrays which are explicitly tracked.
  The "true" memory usage will be greater.
------------------------------------------------------------

------------------------------------------------------------
          Begin self-consistency iteration #    6

  Date     :  20240501, Time     :  175646.753
------------------------------------------------------------
  Pulay mixing of updated and previous charge densities.
  Available memory per node after mixing [GB]:     52.50
  Renormalizing the density to the exact electron count on the 3D integration grid.
  | Formal number of electrons (from input files) :      10.0000000000
  | Integrated number of electrons on 3D grid     :      10.0000000000
  | Charge integration error                      :       0.0000000000
  | Normalization factor for density and gradient :       1.0000000000

  Evaluating partitioned Hartree potential by multipole expansion.
  | Original multipole sum: apparent total charge =   0.125448E-13
  | Sum of charges compensated after spline to logarithmic grids =   0.144073E-03
  | Analytical far-field extrapolation by fixed multipoles:
  | Hartree multipole sum: apparent total charge =   0.131598E-13
  Summing up the Hartree potential.
  Time summed over all CPUs for potential: real work        0.006 s, elapsed        0.006 s
  | RMS charge density error from multipole expansion :   0.599451E-02

  Integrating Hamiltonian matrix: batch-based integration.
  Time summed over all CPUs for integration: real work        0.045 s, elapsed        0.046 s

  Updating Kohn-Sham eigenvalues and eigenvectors using ELSI and the ELPA eigensolver.
  Starting ELPA eigensolver
  Finished transformation to standard eigenproblem
  | Time :     0.000 s
  Finished solving standard eigenproblem
  | Time :     0.001 s
  Finished back-transformation of eigenvectors
  | Time :     0.000 s

  Obtaining occupation numbers and electronic chemical potential using ELSI.
  | Note that, for insulating systems, the printed 'chemical potential' value is not uniquely defined.
  | It can be anywhere in the energy gap, as long as it correctly separates occupied and unoccupied states.
  | In systems with a gap, the physically relevant chemical potential is the VBM or HOMO.

  | Chemical potential (Fermi level):    -0.81168722 eV
  Highest occupied state (VBM) at     -7.10381779 eV
  | Occupation number:      2.00000000

  Lowest unoccupied state (CBM) at    -0.43042177 eV
  | Occupation number:      0.00000000

  Overall HOMO-LUMO gap:      6.67339602 eV.

  Total energy components:
  | Sum of eigenvalues            :         -41.55870433 Ha       -1130.86988294 eV
  | XC energy correction          :          -9.18004404 Ha        -249.80170823 eV
  | XC potential correction       :          11.80624108 Ha         321.26416563 eV
  | Free-atom electrostatic energy:         -35.98666016 Ha        -979.24684659 eV
  | Hartree energy correction     :          -1.54280840 Ha         -41.98195261 eV
  | Entropy correction            :          -0.00000000 Ha          -0.00000000 eV
  | ---------------------------
  | Total energy                  :         -76.46197586 Ha       -2080.63622474 eV
  | Total energy, T -> 0          :         -76.46197586 Ha       -2080.63622474 eV  <-- do not rely on this value for anything but (periodic) metals
  | Electronic free energy        :         -76.46197586 Ha       -2080.63622474 eV

  Derived energy quantities:
  | Kinetic energy                :          76.10099040 Ha        2070.81331069 eV
  | Electrostatic energy          :        -143.38292222 Ha       -3901.64782720 eV
  | Energy correction for multipole
  | error in Hartree potential    :          -0.00278312 Ha          -0.07573246 eV
  | Sum of eigenvalues per atom                           :        -376.95662765 eV
  | Total energy (T->0) per atom                          :        -693.54540825 eV  <-- do not rely on this value for anything but (periodic) metals
  | Electronic free energy per atom                       :        -693.54540825 eV
  Evaluating new KS density.
  Integration grid: deviation in total charge (<rho> - N_e) =   3.552714E-15

  Self-consistency convergence accuracy:
  | Change of charge density      :  0.2392E-01
  | Change of unmixed KS density  :  0.3278E-02
  | Change of sum of eigenvalues  :  0.2571E+01 eV
  | Change of total energy        :  0.1161E-01 eV


------------------------------------------------------------
  End self-consistency iteration #     6       :  max(cpu_time)    wall_clock(cpu1)
  | Time for this iteration                     :        0.029 s           0.030 s
  | Charge density update                       :        0.009 s           0.008 s
  | Density mixing                              :        0.002 s           0.002 s
  | Hartree multipole update                    :        0.001 s           0.001 s
  | Hartree multipole summation                 :        0.006 s           0.006 s
  | Integration                                 :        0.011 s           0.011 s
  | Solution of K.-S. eqns.                     :        0.000 s           0.001 s
  | Total energy evaluation                     :        0.000 s           0.000 s

  Partial memory accounting:
  | Current value for overall tracked memory usage:
  |   Minimum:        2.212 MB (on task 3)
  |   Maximum:        2.251 MB (on task 0)
  |   Average:        2.234 MB
  | Peak value for overall tracked memory usage:
  |   Minimum:        2.286 MB (on task 3 after allocating gradient_basis_wave)
  |   Maximum:        2.325 MB (on task 0 after allocating gradient_basis_wave)
  |   Average:        2.308 MB
  | Largest tracked array allocation so far:
  |   Minimum:        0.723 MB (previous_rho_gradient_diff on task 3)
  |   Maximum:        0.734 MB (previous_rho_gradient_diff on task 0)
  |   Average:        0.729 MB
  Note:  These values currently only include a subset of arrays which are explicitly tracked.
  The "true" memory usage will be greater.
------------------------------------------------------------

------------------------------------------------------------
          Begin self-consistency iteration #    7

  Date     :  20240501, Time     :  175646.783
------------------------------------------------------------
  Pulay mixing of updated and previous charge densities.
  Available memory per node after mixing [GB]:     52.50
  Renormalizing the density to the exact electron count on the 3D integration grid.
  | Formal number of electrons (from input files) :      10.0000000000
  | Integrated number of electrons on 3D grid     :      10.0000000000
  | Charge integration error                      :       0.0000000000
  | Normalization factor for density and gradient :       1.0000000000

  Evaluating partitioned Hartree potential by multipole expansion.
  | Original multipole sum: apparent total charge =   0.459978E-14
  | Sum of charges compensated after spline to logarithmic grids =   0.154736E-03
  | Analytical far-field extrapolation by fixed multipoles:
  | Hartree multipole sum: apparent total charge =   0.521472E-14
  Summing up the Hartree potential.
  Time summed over all CPUs for potential: real work        0.006 s, elapsed        0.006 s
  | RMS charge density error from multipole expansion :   0.608701E-02

  Integrating Hamiltonian matrix: batch-based integration.
  Time summed over all CPUs for integration: real work        0.045 s, elapsed        0.046 s

  Updating Kohn-Sham eigenvalues and eigenvectors using ELSI and the ELPA eigensolver.
  Starting ELPA eigensolver
  Finished transformation to standard eigenproblem
  | Time :     0.001 s
  Finished solving standard eigenproblem
  | Time :     0.000 s
  Finished back-transformation of eigenvectors
  | Time :     0.000 s

  Obtaining occupation numbers and electronic chemical potential using ELSI.
  | Note that, for insulating systems, the printed 'chemical potential' value is not uniquely defined.
  | It can be anywhere in the energy gap, as long as it correctly separates occupied and unoccupied states.
  | In systems with a gap, the physically relevant chemical potential is the VBM or HOMO.

  | Chemical potential (Fermi level):    -0.76159015 eV
  Highest occupied state (VBM) at     -6.99365704 eV
  | Occupation number:      2.00000000

  Lowest unoccupied state (CBM) at    -0.38879843 eV
  | Occupation number:      0.00000000

  Overall HOMO-LUMO gap:      6.60485861 eV.

  Total energy components:
  | Sum of eigenvalues            :         -41.51696228 Ha       -1129.73402381 eV
  | XC energy correction          :          -9.18526935 Ha        -249.94389599 eV
  | XC potential correction       :          11.81314605 Ha         321.45205919 eV
  | Free-atom electrostatic energy:         -35.98666016 Ha        -979.24684659 eV
  | Hartree energy correction     :          -1.58618164 Ha         -43.16219845 eV
  | Entropy correction            :          -0.00000000 Ha          -0.00000000 eV
  | ---------------------------
  | Total energy                  :         -76.46192738 Ha       -2080.63490566 eV
  | Total energy, T -> 0          :         -76.46192738 Ha       -2080.63490566 eV  <-- do not rely on this value for anything but (periodic) metals
  | Electronic free energy        :         -76.46192738 Ha       -2080.63490566 eV

  Derived energy quantities:
  | Kinetic energy                :          76.10787862 Ha        2071.00074872 eV
  | Electrostatic energy          :        -143.38453666 Ha       -3901.69175838 eV
  | Energy correction for multipole
  | error in Hartree potential    :          -0.00292696 Ha          -0.07964656 eV
  | Sum of eigenvalues per atom                           :        -376.57800794 eV
  | Total energy (T->0) per atom                          :        -693.54496855 eV  <-- do not rely on this value for anything but (periodic) metals
  | Electronic free energy per atom                       :        -693.54496855 eV
  Evaluating new KS density.
  Integration grid: deviation in total charge (<rho> - N_e) =  -8.881784E-15

  Self-consistency convergence accuracy:
  | Change of charge density      :  0.7695E-02
  | Change of unmixed KS density  :  0.1280E-01
  | Change of sum of eigenvalues  :  0.1136E+01 eV
  | Change of total energy        :  0.1319E-02 eV


------------------------------------------------------------
  End self-consistency iteration #     7       :  max(cpu_time)    wall_clock(cpu1)
  | Time for this iteration                     :        0.030 s           0.030 s
  | Charge density update                       :        0.009 s           0.009 s
  | Density mixing                              :        0.002 s           0.002 s
  | Hartree multipole update                    :        0.001 s           0.001 s
  | Hartree multipole summation                 :        0.006 s           0.006 s
[...]

------------------------------------------------------------
          Begin self-consistency iteration #    2

  Date     :  20240501, Time     :  175648.546
------------------------------------------------------------
  Pulay mixing of updated and previous charge densities.
  Available memory per node after mixing [GB]:     52.51
  Renormalizing the density to the exact electron count on the 3D integration grid.
  | Formal number of electrons (from input files) :      10.0000000000
  | Integrated number of electrons on 3D grid     :      10.0000000000
  | Charge integration error                      :       0.0000000000
  | Normalization factor for density and gradient :       1.0000000000

  Evaluating partitioned Hartree potential by multipole expansion.
  | Original multipole sum: apparent total charge =  -0.474736E-14
  | Sum of charges compensated after spline to logarithmic grids =   0.163374E-03
  | Analytical far-field extrapolation by fixed multipoles:
  | Hartree multipole sum: apparent total charge =  -0.440300E-14
  Summing up the Hartree potential.
  Time summed over all CPUs for potential: real work        0.006 s, elapsed        0.006 s
  | RMS charge density error from multipole expansion :   0.647982E-02

  Integrating Hamiltonian matrix: batch-based integration.
  Time summed over all CPUs for integration: real work        0.045 s, elapsed        0.046 s

  Updating Kohn-Sham eigenvalues and eigenvectors using ELSI and the ELPA eigensolver.
  Starting ELPA eigensolver
  Finished transformation to standard eigenproblem
  | Time :     0.000 s
  Finished solving standard eigenproblem
  | Time :     0.000 s
  Finished back-transformation of eigenvectors
  | Time :     0.000 s

  Obtaining occupation numbers and electronic chemical potential using ELSI.
  | Note that, for insulating systems, the printed 'chemical potential' value is not uniquely defined.
  | It can be anywhere in the energy gap, as long as it correctly separates occupied and unoccupied states.
  | In systems with a gap, the physically relevant chemical potential is the VBM or HOMO.

  | Chemical potential (Fermi level):    -0.79714791 eV
  Highest occupied state (VBM) at     -7.05509392 eV
  | Occupation number:      2.00000000

  Lowest unoccupied state (CBM) at     0.07401870 eV
  | Occupation number:      0.00000000

  Overall HOMO-LUMO gap:      7.12911262 eV.

  Total energy components:
  | Sum of eigenvalues            :         -41.57326272 Ha       -1131.26603675 eV
  | XC energy correction          :          -9.24080689 Ha        -251.45514942 eV
  | XC potential correction       :          11.88631450 Ha         323.44307407 eV
  | Free-atom electrostatic energy:         -35.73884945 Ha        -972.50357408 eV
  | Hartree energy correction     :          -1.80257724 Ha         -49.05062245 eV
  | Entropy correction            :          -0.00000000 Ha          -0.00000000 eV
  | ---------------------------
  | Total energy                  :         -76.46918181 Ha       -2080.83230863 eV
  | Total energy, T -> 0          :         -76.46918181 Ha       -2080.83230863 eV  <-- do not rely on this value for anything but (periodic) metals
  | Electronic free energy        :         -76.46918181 Ha       -2080.83230863 eV

  Derived energy quantities:
  | Kinetic energy                :          76.27783070 Ha        2075.62537987 eV
  | Electrostatic energy          :        -143.50620561 Ha       -3905.00253908 eV
  | Energy correction for multipole
  | error in Hartree potential    :          -0.00336681 Ha          -0.09161543 eV
  | Sum of eigenvalues per atom                           :        -377.08867892 eV
  | Total energy (T->0) per atom                          :        -693.61076954 eV  <-- do not rely on this value for anything but (periodic) metals
  | Electronic free energy per atom                       :        -693.61076954 eV
  Evaluating new KS density.
  Integration grid: deviation in total charge (<rho> - N_e) =  -1.421085E-14

  Self-consistency convergence accuracy:
  | Change of charge density      :  0.3116E-02
  | Change of unmixed KS density  :  0.3116E-02
  | Change of sum of eigenvalues  : -0.2181E+00 eV
  | Change of total energy        :  0.1081E-03 eV


------------------------------------------------------------
  End self-consistency iteration #     2       :  max(cpu_time)    wall_clock(cpu1)
  | Time for this iteration                     :        0.028 s           0.028 s
  | Charge density update                       :        0.009 s           0.008 s
  | Density mixing                              :        0.000 s           0.000 s
  | Hartree multipole update                    :        0.001 s           0.001 s
  | Hartree multipole summation                 :        0.006 s           0.006 s
  | Integration                                 :        0.011 s           0.011 s
  | Solution of K.-S. eqns.                     :        0.000 s           0.000 s
  | Total energy evaluation                     :        0.000 s           0.001 s

  Partial memory accounting:
  | Current value for overall tracked memory usage:
  |   Minimum:        2.220 MB (on task 0)
  |   Maximum:        2.251 MB (on task 3)
  |   Average:        2.236 MB
  | Peak value for overall tracked memory usage:
  |   Minimum:        2.420 MB (on task 3 after allocating hessian_basis_wave)
  |   Maximum:        2.461 MB (on task 0 after allocating hessian_basis_wave)
  |   Average:        2.441 MB
  | Largest tracked array allocation so far:
  |   Minimum:        0.730 MB (previous_rho_gradient_diff on task 2)
  |   Maximum:        0.735 MB (previous_rho_gradient_diff on task 3)
  |   Average:        0.732 MB
  Note:  These values currently only include a subset of arrays which are explicitly tracked.
  The "true" memory usage will be greater.
------------------------------------------------------------

------------------------------------------------------------
          Begin self-consistency iteration #    3

  Date     :  20240501, Time     :  175648.574
------------------------------------------------------------
  Pulay mixing of updated and previous charge densities.
  Available memory per node after mixing [GB]:     52.51
  Renormalizing the density to the exact electron count on the 3D integration grid.
  | Formal number of electrons (from input files) :      10.0000000000
  | Integrated number of electrons on 3D grid     :      10.0000000000
  | Charge integration error                      :      -0.0000000000
  | Normalization factor for density and gradient :       1.0000000000

  Evaluating partitioned Hartree potential by multipole expansion.
  | Original multipole sum: apparent total charge =  -0.182761E-13
  | Sum of charges compensated after spline to logarithmic grids =   0.163112E-03
  | Analytical far-field extrapolation by fixed multipoles:
  | Hartree multipole sum: apparent total charge =  -0.184483E-13
  Summing up the Hartree potential.
  Time summed over all CPUs for potential: real work        0.006 s, elapsed        0.006 s
  | RMS charge density error from multipole expansion :   0.647746E-02

  Integrating Hamiltonian matrix: batch-based integration.
  Time summed over all CPUs for integration: real work        0.045 s, elapsed        0.046 s

  Updating Kohn-Sham eigenvalues and eigenvectors using ELSI and the ELPA eigensolver.
  Starting ELPA eigensolver
  Finished transformation to standard eigenproblem
  | Time :     0.000 s
  Finished solving standard eigenproblem
  | Time :     0.000 s
  Finished back-transformation of eigenvectors
  | Time :     0.000 s

  Obtaining occupation numbers and electronic chemical potential using ELSI.
  | Note that, for insulating systems, the printed 'chemical potential' value is not uniquely defined.
  | It can be anywhere in the energy gap, as long as it correctly separates occupied and unoccupied states.
  | In systems with a gap, the physically relevant chemical potential is the VBM or HOMO.

  | Chemical potential (Fermi level):    -0.80463110 eV
  Highest occupied state (VBM) at     -7.06748134 eV
  | Occupation number:      2.00000000

  Lowest unoccupied state (CBM) at     0.06922638 eV
  | Occupation number:      0.00000000

  Overall HOMO-LUMO gap:      7.13670772 eV.

  Total energy components:
  | Sum of eigenvalues            :         -41.57910122 Ha       -1131.42491052 eV
  | XC energy correction          :          -9.24002521 Ha        -251.43387881 eV
  | XC potential correction       :          11.88529225 Ha         323.41525735 eV
  | Free-atom electrostatic energy:         -35.73884945 Ha        -972.50357408 eV
  | Hartree energy correction     :          -1.79649710 Ha         -48.88517327 eV
  | Entropy correction            :          -0.00000000 Ha          -0.00000000 eV
  | ---------------------------
  | Total energy                  :         -76.46918073 Ha       -2080.83227933 eV
  | Total energy, T -> 0          :         -76.46918073 Ha       -2080.83227933 eV  <-- do not rely on this value for anything but (periodic) metals
  | Electronic free energy        :         -76.46918073 Ha       -2080.83227933 eV

  Derived energy quantities:
  | Kinetic energy                :          76.27356810 Ha        2075.50938872 eV
  | Electrostatic energy          :        -143.50272362 Ha       -3904.90778924 eV
  | Energy correction for multipole
  | error in Hartree potential    :          -0.00338098 Ha          -0.09200106 eV
  | Sum of eigenvalues per atom                           :        -377.14163684 eV
  | Total energy (T->0) per atom                          :        -693.61075978 eV  <-- do not rely on this value for anything but (periodic) metals
  | Electronic free energy per atom                       :        -693.61075978 eV
  Evaluating new KS density.
  Integration grid: deviation in total charge (<rho> - N_e) =  -7.105427E-15

  Self-consistency convergence accuracy:
  | Change of charge density      :  0.1515E-02
  | Change of unmixed KS density  :  0.1183E-02
  | Change of sum of eigenvalues  : -0.1589E+00 eV
  | Change of total energy        :  0.2930E-04 eV


------------------------------------------------------------
  End self-consistency iteration #     3       :  max(cpu_time)    wall_clock(cpu1)
  | Time for this iteration                     :        0.028 s           0.029 s
  | Charge density update                       :        0.009 s           0.009 s
  | Density mixing                              :        0.001 s           0.001 s
  | Hartree multipole update                    :        0.001 s           0.001 s
  | Hartree multipole summation                 :        0.006 s           0.006 s
  | Integration                                 :        0.011 s           0.012 s
  | Solution of K.-S. eqns.                     :        0.000 s           0.000 s
  | Total energy evaluation                     :        0.000 s           0.000 s

  Partial memory accounting:
  | Current value for overall tracked memory usage:
  |   Minimum:        2.220 MB (on task 0)
  |   Maximum:        2.251 MB (on task 3)
  |   Average:        2.236 MB
  | Peak value for overall tracked memory usage:
  |   Minimum:        2.420 MB (on task 3 after allocating hessian_basis_wave)
  |   Maximum:        2.461 MB (on task 0 after allocating hessian_basis_wave)
  |   Average:        2.441 MB
  | Largest tracked array allocation so far:
  |   Minimum:        0.730 MB (previous_rho_gradient_diff on task 2)
  |   Maximum:        0.735 MB (previous_rho_gradient_diff on task 3)
  |   Average:        0.732 MB
  Note:  These values currently only include a subset of arrays which are explicitly tracked.
  The "true" memory usage will be greater.
------------------------------------------------------------

------------------------------------------------------------
          Begin self-consistency iteration #    4

  Date     :  20240501, Time     :  175648.603
------------------------------------------------------------
  Pulay mixing of updated and previous charge densities.
  Available memory per node after mixing [GB]:     52.51
  Renormalizing the density to the exact electron count on the 3D integration grid.
  | Formal number of electrons (from input files) :      10.0000000000
  | Integrated number of electrons on 3D grid     :      10.0000000000
  | Charge integration error                      :       0.0000000000
  | Normalization factor for density and gradient :       1.0000000000

  Evaluating partitioned Hartree potential by multipole expansion.
  | Original multipole sum: apparent total charge =  -0.119299E-13
  | Sum of charges compensated after spline to logarithmic grids =   0.163030E-03
  | Analytical far-field extrapolation by fixed multipoles:
  | Hartree multipole sum: apparent total charge =  -0.114871E-13
  Summing up the Hartree potential.
  Time summed over all CPUs for potential: real work        0.006 s, elapsed        0.006 s
  | RMS charge density error from multipole expansion :   0.647005E-02

  Integrating Hamiltonian matrix: batch-based integration.
  Time summed over all CPUs for integration: real work        0.045 s, elapsed        0.046 s

  Updating Kohn-Sham eigenvalues and eigenvectors using ELSI and the ELPA eigensolver.
  Starting ELPA eigensolver
  Finished transformation to standard eigenproblem
  | Time :     0.000 s
  Finished solving standard eigenproblem
  | Time :     0.001 s
  Finished back-transformation of eigenvectors
  | Time :     0.000 s

  Obtaining occupation numbers and electronic chemical potential using ELSI.
  | Note that, for insulating systems, the printed 'chemical potential' value is not uniquely defined.
  | It can be anywhere in the energy gap, as long as it correctly separates occupied and unoccupied states.
  | In systems with a gap, the physically relevant chemical potential is the VBM or HOMO.

  | Chemical potential (Fermi level):    -0.80984480 eV
  Highest occupied state (VBM) at     -7.06959366 eV
  | Occupation number:      2.00000000

  Lowest unoccupied state (CBM) at     0.06628147 eV
  | Occupation number:      0.00000000

  Overall HOMO-LUMO gap:      7.13587513 eV.

  Total energy components:
  | Sum of eigenvalues            :         -41.58031203 Ha       -1131.45785833 eV
  | XC energy correction          :          -9.23979212 Ha        -251.42753607 eV
  | XC potential correction       :          11.88499302 Ha         323.40711494 eV
  | Free-atom electrostatic energy:         -35.73884945 Ha        -972.50357408 eV
  | Hartree energy correction     :          -1.79521960 Ha         -48.85041070 eV
  | Entropy correction            :          -0.00000000 Ha          -0.00000000 eV
  | ---------------------------
  | Total energy                  :         -76.46918018 Ha       -2080.83226424 eV
  | Total energy, T -> 0          :         -76.46918018 Ha       -2080.83226424 eV  <-- do not rely on this value for anything but (periodic) metals
  | Electronic free energy        :         -76.46918018 Ha       -2080.83226424 eV

  Derived energy quantities:
  | Kinetic energy                :          76.27345227 Ha        2075.50623684 eV
  | Electrostatic energy          :        -143.50284033 Ha       -3904.91096500 eV
  | Energy correction for multipole
  | error in Hartree potential    :          -0.00338791 Ha          -0.09218983 eV
  | Sum of eigenvalues per atom                           :        -377.15261944 eV
  | Total energy (T->0) per atom                          :        -693.61075475 eV  <-- do not rely on this value for anything but (periodic) metals
  | Electronic free energy per atom                       :        -693.61075475 eV
  Evaluating new KS density.
  Integration grid: deviation in total charge (<rho> - N_e) =   7.105427E-15

  Self-consistency convergence accuracy:
  | Change of charge density      :  0.6828E-03
  | Change of unmixed KS density  :  0.7981E-03
  | Change of sum of eigenvalues  : -0.3295E-01 eV
  | Change of total energy        :  0.1509E-04 eV


------------------------------------------------------------
  End self-consistency iteration #     4       :  max(cpu_time)    wall_clock(cpu1)
  | Time for this iteration                     :        0.029 s           0.029 s
  | Charge density update                       :        0.009 s           0.009 s
  | Density mixing                              :        0.001 s           0.001 s
  | Hartree multipole update                    :        0.001 s           0.001 s
  | Hartree multipole summation                 :        0.006 s           0.006 s
  | Integration                                 :        0.011 s           0.011 s
  | Solution of K.-S. eqns.                     :        0.000 s           0.001 s
  | Total energy evaluation                     :        0.000 s           0.000 s

  Partial memory accounting:
  | Current value for overall tracked memory usage:
  |   Minimum:        2.220 MB (on task 0)
  |   Maximum:        2.251 MB (on task 3)
  |   Average:        2.236 MB
  | Peak value for overall tracked memory usage:
  |   Minimum:        2.420 MB (on task 3 after allocating hessian_basis_wave)
  |   Maximum:        2.461 MB (on task 0 after allocating hessian_basis_wave)
  |   Average:        2.441 MB
  | Largest tracked array allocation so far:
  |   Minimum:        0.730 MB (previous_rho_gradient_diff on task 2)
  |   Maximum:        0.735 MB (previous_rho_gradient_diff on task 3)
  |   Average:        0.732 MB
  Note:  These values currently only include a subset of arrays which are explicitly tracked.
  The "true" memory usage will be greater.
------------------------------------------------------------

------------------------------------------------------------
          Begin self-consistency iteration #    5

  Date     :  20240501, Time     :  175648.632
------------------------------------------------------------
  Pulay mixing of updated and previous charge densities.
  Available memory per node after mixing [GB]:     52.51
  Renormalizing the density to the exact electron count on the 3D integration grid.
  | Formal number of electrons (from input files) :      10.0000000000
  | Integrated number of electrons on 3D grid     :      10.0000000000
  | Charge integration error                      :      -0.0000000000
  | Normalization factor for density and gradient :       1.0000000000

  Evaluating partitioned Hartree potential by multipole expansion.
  | Original multipole sum: apparent total charge =  -0.208589E-13
  | Sum of charges compensated after spline to logarithmic grids =   0.163042E-03
  | Analytical far-field extrapolation by fixed multipoles:
  | Hartree multipole sum: apparent total charge =  -0.198504E-13
  Summing up the Hartree potential.
  Time summed over all CPUs for potential: real work        0.006 s, elapsed        0.006 s
  | RMS charge density error from multipole expansion :   0.646930E-02

  Integrating Hamiltonian matrix: batch-based integration.
  Time summed over all CPUs for integration: real work        0.045 s, elapsed        0.046 s

  Updating Kohn-Sham eigenvalues and eigenvectors using ELSI and the ELPA eigensolver.
  Starting ELPA eigensolver
  Finished transformation to standard eigenproblem
  | Time :     0.000 s
  Finished solving standard eigenproblem
  | Time :     0.000 s
  Finished back-transformation of eigenvectors
  | Time :     0.000 s

  Obtaining occupation numbers and electronic chemical potential using ELSI.
  | Note that, for insulating systems, the printed 'chemical potential' value is not uniquely defined.
  | It can be anywhere in the energy gap, as long as it correctly separates occupied and unoccupied states.
  | In systems with a gap, the physically relevant chemical potential is the VBM or HOMO.

  | Chemical potential (Fermi level):    -0.80961196 eV
  Highest occupied state (VBM) at     -7.06946303 eV
  | Occupation number:      2.00000000
